ITEM: TIMESTEP
0
ITEM: NUMBER OF ATOMS
5424
ITEM: BOX BOUNDS pp pp pp
-7.0000000000000001e-03 7.0000000000000001e-03
-2.0000000000000002e-05 2.0000000000000002e-05
-2.0000000000000001e-04 2.0000000000000001e-04
ITEM: ATOMS id type mass diameter element xs ys zs 
712 1 7.64565e-12 1.7553e-05 C 0.14686 0.431416 0.138957 
265 1 3.78239e-13 6.44369e-06 C 0.148884 0.004245 0.12977 
87 1 1.34299e-12 9.83038e-06 C 0.150752 0.191541 0.155993 
266 1 1.63826e-12 1.05037e-05 C 0.152798 0.159832 0.143283 
40 1 2.98937e-12 1.28353e-05 C 0.154668 0.173406 0.142771 
778 1 7.5713e-12 1.74959e-05 C 0.157488 0.42361 0.158251 
334 1 2.10308e-12 1.14156e-05 C 0.159304 0.164539 0.135702 
954 1 8.43982e-12 1.81408e-05 C 0.16134 0.356843 0.138686 
352 1 5.63139e-12 1.5852e-05 C 0.164809 0.0042245 0.148382 
262 1 6.76859e-13 7.82309e-06 C 0.165875 0.375971 0.156601 
1169 1 7.83077e-13 8.2126e-06 C 0.165357 0.0308633 0.147264 
551 1 1.35568e-11 2.12454e-05 C 0.167922 0.495833 0.154493 
1608 1 2.59449e-12 1.22432e-05 C 0.173157 0.291744 0.155954 
1327 1 1.02668e-12 8.98858e-06 C 0.179878 0.479106 0.146155 
267 1 9.58623e-12 1.89276e-05 C 0.183834 0.0032815 0.133807 
243 1 1.07582e-12 9.12975e-06 C 0.188929 0.044966 0.143301 
96 1 5.18565e-12 1.54222e-05 C 0.197426 0.310114 0.132831 
894 1 1.55084e-12 1.03134e-05 C 0.199643 0.106884 0.148352 
503 1 1.4329e-11 2.16414e-05 C 0.205091 0.0496693 0.140123 
308 1 2.62733e-12 1.22947e-05 C 0.208731 0.422151 0.127813 
2307 1 5.86577e-13 7.45855e-06 C 0.209594 0.0321148 0.12788 
732 1 6.94057e-12 1.69959e-05 C 0.213458 0.060058 0.133036 
1257 1 2.67975e-12 1.23759e-05 C 0.213439 0.266713 0.141661 
2448 1 6.28058e-13 7.63038e-06 C 0.214642 0.0387285 0.156062 
1289 1 1.47339e-11 2.18433e-05 C 0.220039 0.454439 0.125206 
644 1 1.46587e-11 2.18061e-05 C 0.22458 0.458993 0.127584 
250 1 4.62121e-12 1.4841e-05 C 0.229667 0.313541 0.128424 
490 1 3.31257e-11 2.86155e-05 C 0.244938 0.121924 0.128144 
548 1 1.80346e-12 1.08455e-05 C 0.253214 0.104406 0.143308 
599 1 7.32606e-12 1.73049e-05 C 0.256513 0.347123 0.129052 
620 1 1.21214e-11 2.04675e-05 C 0.260725 0.373359 0.157579 
1196 1 9.05475e-12 1.85711e-05 C 0.261837 0.356652 0.141011 
2769 1 3.83941e-12 1.39519e-05 C 0.266063 0.242874 0.159213 
2805 1 2.61436e-12 1.22744e-05 C 0.268213 0.176765 0.151018 
116 1 1.16225e-12 9.36798e-06 C 0.270357 0.053474 0.143301 
1555 1 3.91458e-12 1.40424e-05 C 0.272034 0.245612 0.133947 
1224 1 1.09863e-11 1.98075e-05 C 0.275419 0.0805178 0.152972 
5295 1 1.9235e-12 1.10809e-05 C 0.278718 0.141801 0.139029 
1053 1 1.48805e-11 2.19155e-05 C 0.286031 0.148191 0.130969 
2661 1 6.95956e-12 1.70114e-05 C 0.293775 0.314456 0.140154 
872 1 5.43222e-12 1.56629e-05 C 0.300307 0.2689 0.14149 
2820 1 1.08938e-11 1.97517e-05 C 0.311106 0.402902 0.152114 
4360 1 6.1752e-12 1.63467e-05 C 0.315338 0.280175 0.142898 
1221 1 6.50463e-12 1.66323e-05 C 0.317689 0.306412 0.139472 
1688 1 4.42323e-12 1.4626e-05 C 0.321198 0.269249 0.129986 
2652 1 4.81234e-12 1.50429e-05 C 0.323309 0.355971 0.158423 
4530 1 9.18524e-13 8.66116e-06 C 0.326071 0.0279633 0.143301 
4352 1 2.87762e-12 1.26733e-05 C 0.3325 0.164487 0.143301 
4832 1 7.24419e-13 8.0022e-06 C 0.334643 0.00307975 0.14327 
1356 1 6.23265e-12 1.63972e-05 C 0.336582 0.300664 0.139241 
618 1 1.27632e-11 2.08225e-05 C 0.337504 0.168598 0.147857 
1996 1 7.93445e-13 8.24869e-06 C 0.342098 0.0833925 0.129267 
2723 1 1.01976e-12 8.96834e-06 C 0.345357 0.0389875 0.143308 
1349 1 1.75198e-12 1.07413e-05 C 0.3475 0.100942 0.143306 
3210 1 4.64437e-12 1.48658e-05 C 0.349295 0.265778 0.136244 
2296 1 1.0869e-11 1.97368e-05 C 0.358268 0.383277 0.142571 
1361 1 3.70399e-12 1.37859e-05 C 0.368983 0.207125 0.142165 
2489 1 9.13235e-12 1.8624e-05 C 0.379482 0.370763 0.138217 
2350 1 1.40693e-11 2.15098e-05 C 0.385361 0.463224 0.125873 
2285 1 4.78613e-12 1.50155e-05 C 0.404837 0.329757 0.147992 
1972 1 6.07018e-12 1.62535e-05 C 0.407032 0.30924 0.13379 
3098 1 1.07425e-11 1.96599e-05 C 0.409665 0.39092 0.147968 
5131 1 1.6166e-12 1.04572e-05 C 0.411786 0.0912528 0.143303 
2434 1 3.73127e-12 1.38197e-05 C 0.413633 0.23739 0.138498 
3035 1 1.64344e-11 2.26533e-05 C 0.416152 0.467578 0.141749 
379 1 9.73455e-12 1.90247e-05 C 0.424307 0.428196 0.154318 
2778 1 1.91736e-12 1.10691e-05 C 0.426186 0.1732 0.128265 
1916 1 1.41774e-11 2.15647e-05 C 0.428389 0.468262 0.129553 
3924 1 5.09872e-12 1.53356e-05 C 0.430992 0.258623 0.14148 
4256 1 4.24895e-12 1.44313e-05 C 0.433959 0.252169 0.128263 
2517 1 4.95627e-12 1.51914e-05 C 0.440721 0.376834 0.158723 
4945 1 5.22624e-12 1.54624e-05 C 0.442909 0.381954 0.156994 
5293 1 5.52464e-12 1.57512e-05 C 0.452681 0.325724 0.159943 
901 1 1.27242e-11 2.08012e-05 C 0.455498 0.347912 0.130914 
2255 1 4.49685e-12 1.47067e-05 C 0.457902 0.0667155 0.128289 
5259 1 1.25189e-12 9.60286e-06 C 0.461584 0.16301 0.142501 
4536 1 1.63417e-11 2.26106e-05 C 0.464086 0.475724 0.125683 
1584 1 3.2107e-12 1.31445e-05 C 0.470878 0.313081 0.151579 
2477 1 1.45487e-12 1.00961e-05 C 0.472346 0.127448 0.131967 
3487 1 6.85025e-12 1.69219e-05 C 0.486926 0.31067 0.140445 
3359 1 5.82334e-12 1.60301e-05 C 0.489271 0.31163 0.133859 
2606 1 1.04196e-11 1.94609e-05 C 0.491652 0.467622 0.159917 
2038 1 8.42393e-12 1.81294e-05 C 0.49413 0.351654 0.125646 
2037 1 1.6925e-12 1.06183e-05 C 0.509094 0.125164 0.125526 
2826 1 3.10472e-12 1.29983e-05 C 0.512037 0.240509 0.129096 
2119 1 4.63227e-12 1.48529e-05 C 0.516787 0.232513 0.143316 
2115 1 4.01131e-12 1.41571e-05 C 0.525356 0.222282 0.146644 
1454 1 2.10253e-11 2.4592e-05 C 0.531233 0.288112 0.146132 
4636 1 7.52899e-12 1.74632e-05 C 0.532454 0.342087 0.129801 
1932 1 1.97769e-11 2.40953e-05 C 0.544092 0.152614 0.157106 
3384 1 1.69135e-12 1.06159e-05 C 0.550015 0.206193 0.138164 
4465 1 2.09242e-12 1.13962e-05 C 0.553213 0.122588 0.143329 
919 1 7.83118e-12 1.76938e-05 C 0.560315 0.281816 0.13043 
2851 1 3.54382e-12 1.35843e-05 C 0.559829 0.24892 0.149249 
823 1 1.10216e-11 1.98287e-05 C 0.564775 0.213961 0.141895 
2238 1 2.36755e-12 1.18753e-05 C 0.568025 0.0180525 0.126349 
5280 1 4.34274e-12 1.45367e-05 C 0.568736 0.260862 0.13278 
2591 1 2.14288e-12 1.14871e-05 C 0.572107 0.16718 0.13541 
3289 1 2.85067e-12 1.26336e-05 C 0.574643 0.20087 0.158085 
2280 1 9.81214e-13 8.85388e-06 C 0.576786 0.0806948 0.156406 
3145 1 3.34582e-12 1.33264e-05 C 0.592231 0.260845 0.142938 
1991 1 1.02792e-11 1.93731e-05 C 0.597774 0.424848 0.127147 
4741 1 1.23975e-11 2.06217e-05 C 0.614816 0.445156 0.128871 
4979 1 2.33879e-12 1.1827e-05 C 0.617622 0.180836 0.137173 
3614 1 4.87168e-12 1.51045e-05 C 0.621785 0.245313 0.14483 
5039 1 1.06537e-11 1.96056e-05 C 0.630813 0.419718 0.138659 
4758 1 8.13189e-13 8.31655e-06 C 0.6325 0.0152105 0.143301 
2834 1 1.87117e-12 1.09795e-05 C 0.634643 0.108832 0.143309 
3911 1 2.01521e-12 1.12543e-05 C 0.643516 0.0112398 0.151967 
2069 1 7.36062e-12 1.73321e-05 C 0.644715 0.471394 0.131209 
2397 1 1.2758e-12 9.66362e-06 C 0.647068 0.121529 0.136066 
5165 1 3.32415e-12 1.32976e-05 C 0.648652 0.270536 0.136239 
3959 1 2.2431e-12 1.16635e-05 C 0.650395 0.168952 0.128089 
3015 1 1.30685e-11 2.09872e-05 C 0.652498 0.487792 0.14312 
3198 1 1.15135e-12 9.3386e-06 C 0.658215 0.0543473 0.143763 
4770 1 2.78416e-12 1.25346e-05 C 0.66725 0.201385 0.133926 
1576 1 1.62594e-11 2.25726e-05 C 0.676112 0.223546 0.154329 
3193 1 3.37261e-12 1.33619e-05 C 0.676222 0.314049 0.150043 
4321 1 2.82857e-12 1.26009e-05 C 0.679375 0.234221 0.149165 
5402 1 9.40577e-12 1.88081e-05 C 0.6828 0.371557 0.125629 
5361 1 1.48254e-11 2.18884e-05 C 0.686212 0.485133 0.159629 
2292 1 5.15697e-12 1.53937e-05 C 0.688281 0.0357445 0.137041 
3764 1 2.29602e-12 1.17545e-05 C 0.689645 0.240596 0.142128 
4825 1 1.12125e-11 1.99425e-05 C 0.693981 0.455978 0.142368 
5399 1 8.28681e-12 1.80305e-05 C 0.701946 0.347276 0.125572 
75 1 1.82335e-12 1.08852e-05 C 0.713714 0.0665475 0.14449 
5256 1 8.42363e-12 1.81292e-05 C 0.713929 0.361273 0.159665 
5063 1 1.14562e-11 2.0086e-05 C 0.721821 0.482755 0.153244 
1058 1 1.14393e-12 9.31849e-06 C 0.731671 0.102721 0.131174 
1364 1 1.30341e-12 9.73285e-06 C 0.734943 0.16114 0.144543 
2613 1 4.99389e-12 1.52297e-05 C 0.739984 0.283469 0.134995 
3385 1 1.19072e-11 2.03461e-05 C 0.744312 0.448018 0.144092 
4007 1 9.77045e-12 1.90481e-05 C 0.748162 0.401233 0.134649 
4783 1 6.99475e-12 1.704e-05 C 0.755813 0.345806 0.130309 
3703 1 8.25977e-12 1.80109e-05 C 0.765327 0.330393 0.142699 
4126 1 1.88974e-12 1.10157e-05 C 0.767332 0.135095 0.139905 
4906 1 1.04084e-11 1.94539e-05 C 0.773889 0.380221 0.141243 
3377 1 1.21603e-11 2.04893e-05 C 0.787645 0.448446 0.132607 
3874 1 4.68411e-13 6.91972e-06 C 0.790632 0.057628 0.139616 
4474 1 2.21358e-12 1.16121e-05 C 0.794574 0.165269 0.12747 
4572 1 5.74432e-12 1.59573e-05 C 0.801778 0.267284 0.143145 
2786 1 1.23985e-11 2.06223e-05 C 0.804273 0.177359 0.132947 
3895 1 2.99738e-12 1.28468e-05 C 0.808864 0.073793 0.159314 
3152 1 1.35496e-11 2.12416e-05 C 0.810359 0.420324 0.143425 
4780 1 1.19997e-11 2.03987e-05 C 0.81242 0.16696 0.150766 
3823 1 1.46696e-11 2.18115e-05 C 0.816554 0.46643 0.133477 
5308 1 8.35239e-13 8.39105e-06 C 0.816864 0.0338465 0.141714 
4315 1 3.21e-12 1.31436e-05 C 0.82162 0.0885232 0.140724 
4067 1 6.6788e-12 1.67795e-05 C 0.824907 0.204663 0.126173 
5302 1 1.67328e-12 1.0578e-05 C 0.831568 0.186051 0.158136 
999 1 1.19316e-11 2.036e-05 C 0.833495 0.0118363 0.132864 
5303 1 3.46206e-12 1.3479e-05 C 0.833925 0.18826 0.143396 
4884 1 5.69435e-12 1.59109e-05 C 0.836379 0.181601 0.137351 
3985 1 1.65172e-11 2.26912e-05 C 0.840599 0.0923722 0.158984 
4963 1 4.41031e-12 1.46117e-05 C 0.842499 0.225067 0.143368 
4197 1 5.12226e-12 1.53591e-05 C 0.845815 0.268248 0.125117 
5058 1 1.17059e-11 2.02309e-05 C 0.849835 0.230801 0.158038 
4550 1 1.67666e-11 2.28049e-05 C 0.855204 0.477768 0.140129 
530 1 3.3165e-12 1.32874e-05 C 0.14431 0.692741 0.135126 
293 1 3.74203e-12 1.38329e-05 C 0.146012 0.706542 0.142597 
349 1 2.28663e-11 2.52897e-05 C 0.149775 0.757376 0.139032 
1973 1 1.51933e-13 4.75441e-06 C 0.150357 0.862471 0.143301 
220 1 1.42415e-11 2.15972e-05 C 0.152346 0.981381 0.143596 
579 1 1.80478e-12 1.08481e-05 C 0.154543 0.751119 0.154894 
2404 1 3.28528e-13 6.14804e-06 C 0.163214 0.928339 0.143301 
248 1 2.13864e-12 1.14796e-05 C 0.169731 0.928719 0.12605 
5167 1 4.56226e-13 6.85919e-06 C 0.169643 0.958356 0.143301 
583 1 6.55629e-12 1.66763e-05 C 0.175857 0.746328 0.133836 
3724 1 2.3675e-13 5.512e-06 C 0.178214 0.899693 0.143301 
2996 1 2.61029e-13 5.69433e-06 C 0.186786 0.90811 0.143301 
1328 1 4.34674e-13 6.74943e-06 C 0.191071 0.953839 0.143301 
36 1 1.82658e-11 2.34653e-05 C 0.193224 0.505774 0.155775 
812 1 3.06355e-12 1.29406e-05 C 0.207501 0.862097 0.141622 
2522 1 3.40771e-13 6.22348e-06 C 0.212673 0.611582 0.157566 
494 1 6.16737e-12 1.63398e-05 C 0.217655 0.917397 0.125793 
992 1 1.4398e-11 2.16761e-05 C 0.234436 0.517581 0.159217 
933 1 3.89872e-12 1.40234e-05 C 0.236785 0.864114 0.130692 
966 1 4.27611e-12 1.4462e-05 C 0.238763 0.91828 0.146482 
1807 1 7.29948e-14 3.72371e-06 C 0.248929 0.802786 0.143301 
1353 1 1.84022e-11 2.35235e-05 C 0.254128 0.899695 0.148925 
2029 1 2.79399e-12 1.25493e-05 C 0.278401 0.688875 0.158331 
1426 1 2.37221e-11 2.56014e-05 C 0.281069 0.543389 0.143639 
612 1 8.4339e-12 1.81366e-05 C 0.325547 0.839611 0.136843 
1279 1 2.72451e-12 1.24444e-05 C 0.331271 0.675739 0.139833 
987 1 8.83077e-12 1.84167e-05 C 0.333346 0.909385 0.128598 
686 1 1.00586e-11 1.92335e-05 C 0.342586 0.999191 0.147009 
471 1 3.2646e-12 1.32177e-05 C 0.345078 0.57262 0.131898 
1435 1 4.0375e-12 1.41879e-05 C 0.354575 0.808558 0.151647 
1331 1 3.17516e-11 2.82142e-05 C 0.371987 0.991992 0.149047 
4127 1 2.05947e-13 5.26176e-06 C 0.3775 0.887831 0.143301 
865 1 8.70689e-12 1.83302e-05 C 0.382819 0.86577 0.145331 
2163 1 1.3753e-11 2.13474e-05 C 0.393296 0.51227 0.148571 
3747 1 4.57162e-13 6.86387e-06 C 0.396785 0.957248 0.143187 
3010 1 3.05049e-11 2.784e-05 C 0.400282 0.62548 0.128446 
1344 1 2.53842e-12 1.21544e-05 C 0.412091 0.645871 0.141604 
1611 1 1.94823e-11 2.3975e-05 C 0.421362 0.519201 0.125219 
1095 1 1.53894e-12 1.02869e-05 C 0.426257 0.684117 0.146938 
4871 1 1.28389e-13 4.49492e-06 C 0.428929 0.848669 0.143301 
2287 1 3.99951e-12 1.41432e-05 C 0.432733 0.821237 0.132781 
1718 1 3.058e-12 1.29328e-05 C 0.441787 0.972588 0.159562 
522 1 9.86144e-13 8.86869e-06 C 0.443231 0.952928 0.139323 
619 1 6.35284e-12 1.65019e-05 C 0.447001 0.91207 0.125559 
2286 1 5.1005e-12 1.53373e-05 C 0.467298 0.686474 0.145343 
51 1 3.82564e-12 1.39352e-05 C 0.489795 0.991893 0.159272 
927 1 2.94541e-12 1.27721e-05 C 0.500336 0.847598 0.134532 
1819 1 4.94726e-12 1.51822e-05 C 0.502792 0.83303 0.156252 
3451 1 7.44603e-12 1.73989e-05 C 0.509978 0.817754 0.137505 
2801 1 7.24257e-12 1.72389e-05 C 0.51786 0.937949 0.150068 
118 1 4.42099e-12 1.46235e-05 C 0.520528 0.670506 0.149701 
1767 1 5.72741e-12 1.59416e-05 C 0.525499 0.966486 0.156373 
2438 1 4.43001e-12 1.46335e-05 C 0.550202 0.828222 0.129757 
4738 1 2.88616e-12 1.26858e-05 C 0.552015 0.661494 0.148668 
1497 1 1.25689e-11 2.07163e-05 C 0.556119 0.631653 0.140302 
3324 1 1.19291e-11 2.03586e-05 C 0.55795 0.8301 0.142845 
3093 1 1.83495e-11 2.35011e-05 C 0.56233 0.554009 0.148656 
4676 1 6.42737e-13 7.68936e-06 C 0.563929 0.991381 0.143301 
3825 1 5.33606e-13 7.22691e-06 C 0.567797 0.63818 0.154152 
2497 1 7.1545e-12 1.71688e-05 C 0.571164 0.801951 0.138352 
5112 1 2.50357e-12 1.20985e-05 C 0.57704 0.805061 0.134487 
3760 1 4.38464e-13 6.76899e-06 C 0.578929 0.954647 0.143301 
2210 1 1.63616e-11 2.26197e-05 C 0.581696 0.960431 0.141583 
3620 1 9.01094e-13 8.60602e-06 C 0.585231 0.75376 0.139635 
2034 1 3.67445e-12 1.37492e-05 C 0.586714 0.578294 0.15061 
2631 1 2.07225e-12 1.13595e-05 C 0.591342 0.78598 0.133841 
1723 1 5.47312e-12 1.57021e-05 C 0.593064 0.996902 0.156215 
4074 1 7.3764e-12 1.73445e-05 C 0.608406 0.943475 0.154348 
5412 1 2.01016e-11 2.42264e-05 C 0.625592 0.554334 0.142102 
1621 1 3.01367e-12 1.287e-05 C 0.627952 0.972079 0.147649 
3216 1 2.75591e-13 5.7983e-06 C 0.629093 0.61201 0.144841 
3357 1 1.48299e-11 2.18906e-05 C 0.634121 0.89701 0.129125 
2303 1 3.5e-12 1.35281e-05 C 0.640306 0.75953 0.141503 
2628 1 3.47853e-12 1.35003e-05 C 0.642523 0.524423 0.136148 
4057 1 8.03815e-12 1.78483e-05 C 0.657904 0.717513 0.153726 
2929 1 1.46764e-11 2.18148e-05 C 0.664982 0.50306 0.155419 
3730 1 5.95474e-13 7.49607e-06 C 0.6775 0.983856 0.143301 
2141 1 5.4012e-12 1.5633e-05 C 0.679637 0.933464 0.151821 
1010 1 3.55101e-12 1.35935e-05 C 0.690216 0.832127 0.152857 
2389 1 4.25093e-12 1.44336e-05 C 0.699978 0.775732 0.127058 
2732 1 3.94732e-12 1.40814e-05 C 0.715441 0.935669 0.136083 
3841 1 4.37505e-12 1.45727e-05 C 0.740841 0.98199 0.14728 
2943 1 9.63432e-12 1.89592e-05 C 0.751832 0.945267 0.130002 
3450 1 5.45271e-12 1.56826e-05 C 0.754301 0.96765 0.135069 
3188 1 1.0428e-11 1.94661e-05 C 0.767374 0.915541 0.156883 
3529 1 3.20829e-12 1.31413e-05 C 0.769357 0.5184 0.141035 
1365 1 2.76879e-12 1.25115e-05 C 0.770712 0.945311 0.147261 
3464 1 2.14413e-13 5.33289e-06 C 0.786784 0.889597 0.143325 
4802 1 2.82523e-11 2.71371e-05 C 0.797244 0.6215 0.132332 
1858 1 1.00996e-12 8.9395e-06 C 0.814455 0.910399 0.136322 
5231 1 6.1004e-12 1.62804e-05 C 0.829527 0.580678 0.153111 
4508 1 6.87904e-12 1.69455e-05 C 0.838112 0.728055 0.128871 
4510 1 8.50816e-12 1.81896e-05 C 0.843455 0.714761 0.15612 
5060 1 5.10614e-12 1.5343e-05 C 0.847498 0.864466 0.142842 
4752 1 1.93927e-12 1.11111e-05 C 0.851672 0.750173 0.142699 
128 1 5.49887e-12 1.57267e-05 C 0.145699 0.0273107 0.180394 
2125 1 2.13527e-12 1.14735e-05 C 0.146071 0.12573 0.186531 
2544 1 8.06508e-13 8.29371e-06 C 0.152507 0.0148618 0.186739 
1513 1 9.44068e-13 8.74071e-06 C 0.161671 0.0869893 0.199129 
1797 1 6.51597e-12 1.6642e-05 C 0.163353 0.302065 0.189307 
115 1 1.91338e-12 1.10615e-05 C 0.165289 0.164605 0.193489 
18 1 1.18371e-11 2.03061e-05 C 0.170931 0.494362 0.177669 
515 1 8.75305e-12 1.83625e-05 C 0.178216 0.345532 0.183732 
482 1 1.38135e-11 2.13786e-05 C 0.18021 0.0528815 0.194425 
1359 1 2.89425e-12 1.26977e-05 C 0.180374 0.16788 0.186969 
446 1 8.18599e-12 1.79571e-05 C 0.182498 0.345759 0.178427 
782 1 5.51318e-12 1.57403e-05 C 0.184882 0.422001 0.18658 
372 1 2.1622e-11 2.48224e-05 C 0.189043 0.0806757 0.161663 
569 1 1.46964e-11 2.18247e-05 C 0.201117 0.137797 0.168462 
1163 1 9.49514e-12 1.88674e-05 C 0.206569 0.38468 0.196193 
1258 1 1.05967e-11 1.95705e-05 C 0.209737 0.402406 0.199198 
577 1 7.77248e-12 1.76495e-05 C 0.211573 0.0685533 0.189775 
1692 1 7.89383e-13 8.23458e-06 C 0.212499 0.0119125 0.186588 
53 1 5.76045e-12 1.59722e-05 C 0.219463 0.0367638 0.196877 
1978 1 5.01581e-12 1.5252e-05 C 0.222824 0.278365 0.194449 
484 1 9.00886e-12 1.85397e-05 C 0.22754 0.151779 0.177687 
273 1 1.41447e-12 1.00018e-05 C 0.2283 0.222939 0.180391 
1425 1 3.03209e-12 1.28962e-05 C 0.232929 0.200923 0.163359 
1129 1 2.33143e-12 1.18146e-05 C 0.23907 0.289848 0.162153 
3099 1 1.75582e-12 1.07491e-05 C 0.243117 0.248417 0.166823 
556 1 2.49751e-12 1.20888e-05 C 0.244643 0.145625 0.186603 
1802 1 1.35295e-11 2.12311e-05 C 0.247203 0.45538 0.197242 
1358 1 8.90405e-12 1.84675e-05 C 0.250031 0.393713 0.197762 
2918 1 1.65297e-12 1.0535e-05 C 0.254336 0.165034 0.198888 
839 1 1.3905e-11 2.14258e-05 C 0.259224 0.493931 0.179071 
76 1 1.31259e-11 2.10179e-05 C 0.263512 0.0730978 0.175909 
1933 1 2.95526e-12 1.27863e-05 C 0.26945 0.480934 0.184469 
343 1 8.37085e-12 1.80913e-05 C 0.273907 0.397647 0.191786 
2610 1 8.00182e-12 1.78214e-05 C 0.276691 0.331979 0.18848 
4262 1 1.49956e-12 1.01984e-05 C 0.279112 0.110673 0.19031 
947 1 5.0001e-12 1.5236e-05 C 0.283508 0.273383 0.192542 
1510 1 4.65591e-12 1.48781e-05 C 0.285864 0.338783 0.174215 
2061 1 7.46244e-13 8.08176e-06 C 0.2875 0.00638925 0.186603 
1357 1 1.21516e-11 2.04844e-05 C 0.291529 0.425991 0.189987 
491 1 2.1838e-11 2.49048e-05 C 0.294851 0.119847 0.19552 
3207 1 5.69968e-12 1.59158e-05 C 0.296663 0.321015 0.19392 
908 1 1.43073e-12 1.004e-05 C 0.298234 0.130826 0.165287 
2547 1 1.15912e-11 2.01645e-05 C 0.302502 0.391358 0.185851 
1487 1 4.89746e-12 1.51311e-05 C 0.309008 0.306451 0.198077 
4358 1 5.65802e-12 1.5877e-05 C 0.319642 0.273814 0.183367 
2651 1 1.75283e-12 1.0743e-05 C 0.321817 0.106374 0.187271 
1652 1 4.69736e-12 1.49221e-05 C 0.330359 0.247235 0.182541 
1792 1 3.54391e-12 1.35844e-05 C 0.33468 0.445604 0.17405 
902 1 7.81807e-12 1.76839e-05 C 0.340941 0.357067 0.179781 
1526 1 4.64986e-12 1.48717e-05 C 0.343231 0.235552 0.186916 
2063 1 4.68493e-12 1.4909e-05 C 0.34522 0.130625 0.174372 
1835 1 7.61967e-12 1.75331e-05 C 0.351133 0.402419 0.183514 
1551 1 1.09429e-11 1.97814e-05 C 0.352702 0.149206 0.193503 
634 1 8.94211e-12 1.84938e-05 C 0.360028 0.068771 0.167898 
4108 1 1.25373e-12 9.60758e-06 C 0.361289 0.140473 0.198151 
2871 1 1.02646e-11 1.93639e-05 C 0.363587 0.472773 0.178147 
1407 1 7.28702e-12 1.72741e-05 C 0.366883 0.35543 0.166336 
3164 1 1.18819e-12 9.43716e-06 C 0.368809 0.153326 0.199611 
2535 1 9.6939e-12 1.89982e-05 C 0.377928 0.0328088 0.176894 
1724 1 3.01776e-12 1.28758e-05 C 0.381563 0.254755 0.165663 
4055 1 8.46209e-13 8.42762e-06 C 0.386557 0.0744053 0.196416 
2860 1 1.57082e-12 1.03575e-05 C 0.388215 0.0874458 0.186584 
1553 1 1.13759e-11 2.00389e-05 C 0.390357 0.410992 0.173875 
5288 1 1.92454e-12 1.10829e-05 C 0.403214 0.149447 0.174462 
1293 1 2.42123e-11 2.57765e-05 C 0.406023 0.242658 0.166424 
1323 1 4.9314e-13 7.03941e-06 C 0.410282 0.0263365 0.19953 
1431 1 2.61591e-11 2.64496e-05 C 0.413767 0.180684 0.196491 
5138 1 4.51664e-12 1.47283e-05 C 0.42658 0.252403 0.19075 
3212 1 7.71827e-12 1.76084e-05 C 0.432724 0.348297 0.196483 
4427 1 3.9443e-12 1.40778e-05 C 0.434967 0.244751 0.194486 
2212 1 2.05603e-12 1.13298e-05 C 0.437157 0.207284 0.181821 
3522 1 3.84965e-12 1.39643e-05 C 0.438919 0.277231 0.193855 
1805 1 9.48133e-12 1.88583e-05 C 0.446069 0.353942 0.185843 
290 1 1.0765e-11 1.96736e-05 C 0.450477 0.055214 0.165854 
1066 1 2.65362e-12 1.23356e-05 C 0.450684 0.256186 0.162983 
4442 1 1.67546e-11 2.27994e-05 C 0.455174 0.491609 0.197353 
5054 1 1.50521e-11 2.19995e-05 C 0.458602 0.46572 0.19314 
3040 1 2.45041e-12 1.20123e-05 C 0.460877 0.169151 0.190531 
2139 1 2.82416e-12 1.25944e-05 C 0.464696 0.0362733 0.190073 
4600 1 1.80798e-12 1.08545e-05 C 0.467745 0.157287 0.18742 
4346 1 2.22739e-12 1.16362e-05 C 0.472074 0.184967 0.195376 
2798 1 9.37948e-12 1.87905e-05 C 0.473992 0.392174 0.166371 
210 1 7.96458e-12 1.77937e-05 C 0.476472 0.351445 0.194666 
2787 1 1.59843e-12 1.04178e-05 C 0.478214 0.137389 0.164516 
2078 1 2.20138e-11 2.49715e-05 C 0.487118 0.195386 0.196063 
5003 1 1.15971e-12 9.36115e-06 C 0.493214 0.0532488 0.186593 
3293 1 8.97774e-12 1.85183e-05 C 0.498255 0.440081 0.180468 
2289 1 5.60394e-12 1.58262e-05 C 0.499419 0.191624 0.188348 
4018 1 1.66305e-12 1.05564e-05 C 0.503405 0.233974 0.165686 
862 1 9.2672e-12 1.87152e-05 C 0.506503 0.181429 0.161814 
4409 1 1.2133e-11 2.0474e-05 C 0.508045 0.414291 0.189996 
3488 1 4.31682e-12 1.45078e-05 C 0.510492 0.239068 0.189346 
4608 1 2.33036e-12 1.18128e-05 C 0.512357 0.15702 0.18952 
3782 1 3.87415e-12 1.39939e-05 C 0.514643 0.206128 0.186605 
5126 1 6.24772e-12 1.64104e-05 C 0.51893 0.279753 0.186629 
5332 1 9.59619e-13 8.78845e-06 C 0.523475 0.072953 0.191871 
2852 1 1.0218e-11 1.93346e-05 C 0.527501 0.377073 0.182231 
4241 1 2.16402e-12 1.15248e-05 C 0.534025 0.142215 0.188549 
4623 1 6.60407e-12 1.67167e-05 C 0.538213 0.303237 0.181441 
3870 1 1.65058e-11 2.2686e-05 C 0.540931 0.489965 0.198621 
4345 1 3.6372e-12 1.37026e-05 C 0.546779 0.234471 0.17119 
4774 1 5.57523e-12 1.57991e-05 C 0.548821 0.27438 0.188806 
3512 1 5.53042e-12 1.57567e-05 C 0.55576 0.341542 0.180016 
2527 1 1.16568e-12 9.37719e-06 C 0.561279 0.170998 0.188616 
3535 1 3.34686e-12 1.33278e-05 C 0.570358 0.208863 0.17895 
2231 1 1.01285e-12 8.94803e-06 C 0.572305 0.0934553 0.186127 
2877 1 1.56155e-11 2.22706e-05 C 0.57847 0.477492 0.196148 
1456 1 3.72053e-12 1.38064e-05 C 0.581071 0.200201 0.186633 
2205 1 2.07749e-11 2.4494e-05 C 0.588553 0.27666 0.16128 
5044 1 6.03145e-12 1.62188e-05 C 0.590443 0.384174 0.180193 
3569 1 1.20852e-11 2.04471e-05 C 0.595335 0.493341 0.177817 
1133 1 2.91331e-12 1.27255e-05 C 0.598086 0.0215758 0.179668 
4484 1 1.04393e-12 9.03865e-06 C 0.602481 0.044935 0.186992 
4410 1 6.39958e-12 1.65423e-05 C 0.606786 0.31683 0.160335 
4219 1 5.72277e-12 1.59373e-05 C 0.611954 0.104796 0.177457 
2967 1 4.20924e-12 1.43862e-05 C 0.613139 0.491052 0.193582 
4398 1 2.48841e-12 1.20741e-05 C 0.617177 0.191782 0.1948 
2792 1 3.71185e-12 1.37957e-05 C 0.619643 0.203823 0.185496 
3343 1 7.02538e-13 7.9208e-06 C 0.621296 0.0578405 0.196495 
4778 1 6.5845e-12 1.67001e-05 C 0.628213 0.305091 0.180511 
4654 1 7.31179e-13 8.02701e-06 C 0.632406 0.0233695 0.188477 
4577 1 3.86167e-12 1.39788e-05 C 0.636462 0.296289 0.17221 
3550 1 9.28801e-12 1.87292e-05 C 0.638729 0.367117 0.190651 
2972 1 5.98999e-12 1.61816e-05 C 0.641211 0.288895 0.189427 
4140 1 3.45925e-12 1.34753e-05 C 0.643314 0.203267 0.188564 
1729 1 8.97268e-12 1.85148e-05 C 0.648381 0.073119 0.193865 
4553 1 3.86534e-13 6.49046e-06 C 0.649643 0.00390525 0.171611 
2431 1 2.46886e-12 1.20424e-05 C 0.660357 0.144037 0.186609 
3088 1 6.05123e-12 1.62365e-05 C 0.662501 0.274344 0.186642 
2089 1 1.32583e-11 2.10883e-05 C 0.667617 0.161112 0.164463 
2813 1 4.36219e-12 1.45584e-05 C 0.668926 0.260959 0.167332 
2667 1 1.04492e-11 1.94793e-05 C 0.681082 0.401394 0.199927 
1458 1 9.81661e-12 1.9078e-05 C 0.682995 0.0836893 0.187662 
4307 1 7.91483e-13 8.24188e-06 C 0.684133 0.195994 0.17551 
5255 1 1.88543e-11 2.37146e-05 C 0.696809 0.495858 0.188055 
3998 1 1.5741e-12 1.03647e-05 C 0.698953 0.0926115 0.18709 
3143 1 3.40851e-12 1.34091e-05 C 0.700764 0.227565 0.191319 
3905 1 1.41871e-11 2.15697e-05 C 0.702375 0.0325117 0.195365 
5046 1 6.25729e-12 1.64188e-05 C 0.704336 0.396228 0.179437 
5226 1 9.63918e-12 1.89624e-05 C 0.709643 0.355064 0.186385 
2129 1 1.639e-11 2.26328e-05 C 0.711588 0.139505 0.182227 
5253 1 5.11171e-12 1.53486e-05 C 0.716383 0.334757 0.162753 
2866 1 4.49764e-12 1.47076e-05 C 0.726787 0.22792 0.186608 
4695 1 8.67128e-12 1.83052e-05 C 0.730913 0.352304 0.189829 
5238 1 3.43454e-12 1.34432e-05 C 0.733215 0.188913 0.186608 
2091 1 1.32011e-12 9.77424e-06 C 0.739648 0.0991498 0.189982 
4799 1 9.1037e-12 1.86045e-05 C 0.741848 0.353524 0.188295 
624 1 1.15313e-11 2.01298e-05 C 0.749527 0.107947 0.182667 
4302 1 9.25047e-12 1.8704e-05 C 0.752984 0.387137 0.194186 
4894 1 8.11877e-13 8.31207e-06 C 0.754643 0.0150435 0.186603 
3756 1 6.14187e-12 1.63172e-05 C 0.755948 0.458358 0.160859 
4245 1 5.17995e-12 1.54166e-05 C 0.757322 0.31092 0.191705 
4330 1 3.60691e-12 1.36644e-05 C 0.76354 0.229613 0.193122 
4998 1 3.31501e-12 1.32854e-05 C 0.767958 0.223583 0.19587 
5381 1 4.39427e-12 1.4594e-05 C 0.77193 0.243926 0.189751 
4886 1 1.23366e-11 2.05878e-05 C 0.772596 0.0932108 0.194957 
4078 1 2.37853e-12 1.18937e-05 C 0.776031 0.146754 0.187046 
4048 1 1.52909e-12 1.02649e-05 C 0.777128 0.494272 0.167511 
3486 1 8.66968e-12 1.8304e-05 C 0.778546 0.00346875 0.173795 
3675 1 3.16753e-12 1.30854e-05 C 0.7825 0.177431 0.186604 
2025 1 5.43923e-12 1.56696e-05 C 0.791591 0.16138 0.165943 
4757 1 9.65438e-12 1.89723e-05 C 0.803927 0.355007 0.18659 
5407 1 9.18417e-12 1.86592e-05 C 0.807367 0.461576 0.166643 
4591 1 1.42436e-11 2.15983e-05 C 0.818741 0.483591 0.164782 
5098 1 2.19306e-11 2.494e-05 C 0.819098 0.04862 0.181828 
478 1 4.8212e-12 1.50521e-05 C 0.820316 0.153441 0.193983 
3812 1 7.96556e-12 1.77945e-05 C 0.821523 0.405888 0.17688 
4887 1 8.1768e-12 1.79504e-05 C 0.831215 0.0538033 0.185577 
5323 1 1.14635e-11 2.00902e-05 C 0.839889 0.0799133 0.18683 
4647 1 3.32766e-12 1.33023e-05 C 0.840395 0.206242 0.182772 
3876 1 1.08388e-12 9.15249e-06 C 0.841723 0.404545 0.173827 
4857 1 4.26058e-12 1.44445e-05 C 0.846885 0.237614 0.189378 
4754 1 7.07139e-12 1.7102e-05 C 0.849066 0.350771 0.173203 
3588 1 2.05858e-12 1.13345e-05 C 0.851071 0.120539 0.186576 
4468 1 1.06922e-11 1.96291e-05 C 0.853298 0.181372 0.183143 
2513 1 1.8423e-13 5.0699e-06 C 0.146478 0.756956 0.186656 
441 1 2.43823e-11 2.58367e-05 C 0.148639 0.600365 0.184301 
656 1 1.01319e-12 8.94905e-06 C 0.150837 0.978679 0.198783 
685 1 8.17706e-12 1.79506e-05 C 0.15789 0.569681 0.191098 
3568 1 6.45064e-14 3.57339e-06 C 0.158929 0.792642 0.186603 
2023 1 2.94613e-13 5.92875e-06 C 0.167499 0.917529 0.186661 
369 1 3.46392e-12 1.34814e-05 C 0.173093 0.853108 0.188578 
4432 1 1.63355e-13 4.87069e-06 C 0.176071 0.868458 0.186603 
17 1 5.05829e-12 1.52949e-05 C 0.195899 0.67714 0.173909 
4791 1 3.05608e-13 6.00161e-06 C 0.201786 0.921913 0.186603 
793 1 1.20781e-11 2.0443e-05 C 0.215551 0.639634 0.173338 
4663 1 2.35577e-13 5.50288e-06 C 0.218929 0.899267 0.186603 
1105 1 2.47395e-12 1.20506e-05 C 0.229129 0.662572 0.196663 
4452 1 2.13354e-13 5.3241e-06 C 0.229643 0.890822 0.186603 
1158 1 1.12034e-11 1.99371e-05 C 0.231378 0.619178 0.183406 
181 1 2.31903e-12 1.17936e-05 C 0.240238 0.678181 0.179543 
897 1 5.03097e-12 1.52673e-05 C 0.242023 0.864786 0.161512 
1903 1 3.54656e-13 6.30689e-06 C 0.261786 0.934867 0.186628 
1642 1 6.43281e-12 1.65709e-05 C 0.267487 0.763124 0.184389 
975 1 3.74747e-12 1.38397e-05 C 0.284571 0.893297 0.199724 
167 1 1.92587e-11 2.3883e-05 C 0.288479 0.774226 0.197062 
1067 1 9.39166e-12 1.87987e-05 C 0.305098 0.746143 0.187824 
1467 1 3.65473e-12 1.37245e-05 C 0.307976 0.977878 0.19036 
1684 1 2.22255e-12 1.16278e-05 C 0.323999 0.906062 0.187349 
1588 1 1.92022e-11 2.38596e-05 C 0.328267 0.88174 0.183095 
1278 1 3.0884e-12 1.29755e-05 C 0.335559 0.996141 0.194816 
1968 1 2.07257e-12 1.13601e-05 C 0.339619 0.887794 0.162147 
1873 1 3.57701e-12 1.36265e-05 C 0.348778 0.673143 0.191791 
2396 1 2.56407e-12 1.21952e-05 C 0.356211 0.554995 0.172306 
1605 1 1.74656e-11 2.31175e-05 C 0.375352 0.500782 0.166237 
1716 1 1.18766e-12 9.43576e-06 C 0.380736 0.613553 0.19708 
2293 1 1.94678e-11 2.39691e-05 C 0.387542 0.904201 0.197665 
2343 1 2.082e-11 2.45117e-05 C 0.396984 0.58143 0.189877 
2394 1 6.60931e-12 1.67211e-05 C 0.403197 0.840879 0.16767 
3473 1 2.69835e-13 5.75765e-06 C 0.413929 0.910992 0.186603 
1290 1 2.70027e-12 1.24074e-05 C 0.422922 0.979999 0.18222 
1914 1 6.81326e-12 1.68913e-05 C 0.436248 0.82422 0.16945 
2418 1 1.79927e-12 1.0837e-05 C 0.439852 0.803035 0.197359 
931 1 4.86667e-12 1.50993e-05 C 0.448339 0.651048 0.183558 
2579 1 4.88422e-12 1.51174e-05 C 0.469186 0.561269 0.180984 
1017 1 2.56374e-11 2.62727e-05 C 0.47899 0.997061 0.181022 
43 1 2.45518e-11 2.58964e-05 C 0.482497 0.559239 0.182791 
2251 1 5.63418e-12 1.58546e-05 C 0.496112 0.824407 0.163935 
1809 1 1.1071e-11 1.98583e-05 C 0.513199 0.854561 0.166524 
613 1 3.68171e-12 1.37582e-05 C 0.515616 0.773512 0.165827 
3538 1 2.57982e-12 1.22201e-05 C 0.523519 0.596555 0.172802 
1538 1 9.47418e-12 1.88535e-05 C 0.534003 0.902967 0.18661 
3576 1 5.14547e-12 1.53823e-05 C 0.536409 0.790773 0.172896 
2057 1 2.58718e-12 1.22317e-05 C 0.553325 0.817143 0.196459 
2158 1 3.87616e-12 1.39963e-05 C 0.559883 0.858401 0.195655 
2560 1 6.37224e-12 1.65187e-05 C 0.569053 0.785424 0.191236 
2449 1 3.35262e-12 1.33354e-05 C 0.573112 0.580775 0.165453 
1782 1 1.50538e-11 2.20003e-05 C 0.575257 0.976516 0.189953 
4527 1 2.40028e-11 2.5702e-05 C 0.600495 0.565098 0.185668 
2067 1 8.78341e-12 1.83837e-05 C 0.603575 0.550633 0.161102 
3974 1 9.55708e-13 8.77649e-06 C 0.606942 0.854021 0.193776 
2552 1 1.0702e-11 1.96351e-05 C 0.617814 0.902292 0.167704 
971 1 1.21859e-11 2.05037e-05 C 0.620661 0.978225 0.176426 
3165 1 3.80465e-12 1.39097e-05 C 0.623041 0.778841 0.166774 
2857 1 1.84342e-12 1.0925e-05 C 0.632199 0.727893 0.188888 
623 1 1.64543e-11 2.26624e-05 C 0.660684 0.975074 0.16452 
5035 1 2.17654e-11 2.48772e-05 C 0.671499 0.546943 0.195337 
3282 1 2.9032e-12 1.27108e-05 C 0.674032 0.844857 0.186614 
3602 1 6.31915e-12 1.64727e-05 C 0.677903 0.559744 0.188683 