ITEM: TIMESTEP
0
ITEM: NUMBER OF ATOMS
16272
ITEM: BOX BOUNDS pp pp ff
0.0000000000000000e+00 1.0026607000000000e-02
0.0000000000000000e+00 9.9519084000000008e-03
0.0000000000000000e+00 1.7071021000000000e-04
ITEM: ATOMS id type mass radius element xs ys zs 
1807 1 7.29948e-14 1.86186e-06 C 0.150044 0.00374538 0.179192 
3568 1 6.45064e-14 1.78669e-06 C 0.0243782 0.0054858 0.176815 
4280 1 6.17172e-14 1.76056e-06 C 0.0213862 0.00896665 0.175959 
3398 1 6.11176e-14 1.75484e-06 C 0.0393384 0.0141879 0.175769 
3735 1 8.02194e-14 1.92136e-06 C 0.278702 0.0159283 0.180994 
4111 1 8.11984e-14 1.92915e-06 C 0.0124101 0.0194092 0.181225 
4113 1 6.18766e-14 1.76208e-06 C 0.0154021 0.0194092 0.176009 
2178 1 6.82141e-14 1.82029e-06 C 0.75294 0.018539 0.177892 
3877 1 6.92894e-14 1.8298e-06 C 0.0243782 0.0211496 0.178193 
2414 1 6.6624e-14 1.80603e-06 C 0.0288663 0.0237602 0.177438 
2765 1 7.36548e-14 1.86745e-06 C 0.12162 0.0237602 0.179364 
5294 1 8.03189e-14 1.92216e-06 C 0.0154021 0.0263709 0.181018 
4475 1 8.2231e-14 1.93729e-06 C 0.0557946 0.0272411 0.181466 
2357 1 7.33395e-14 1.86478e-06 C 0.00941804 0.0298517 0.179282 
3462 1 6.10141e-14 1.75385e-06 C 0.0183942 0.0298517 0.175736 
2780 1 6.30717e-14 1.77335e-06 C 0.509089 0.0298517 0.17638 
3726 1 6.73781e-14 1.81282e-06 C 0.743964 0.0289815 0.177508 
4546 1 7.17172e-14 1.85093e-06 C 0.277206 0.0324623 0.178854 
3463 1 7.41166e-14 1.87135e-06 C 0.362479 0.0315921 0.179484 
7231 1 7.29948e-14 1.86186e-06 C 0.150044 0.0338657 0.179192 
8992 1 6.45064e-14 1.78669e-06 C 0.0243782 0.0356061 0.176815 
9704 1 6.17172e-14 1.76056e-06 C 0.0213862 0.039087 0.175959 
8822 1 6.11176e-14 1.75484e-06 C 0.0393384 0.0443082 0.175769 
9159 1 8.02194e-14 1.92136e-06 C 0.278702 0.0460487 0.180994 
9535 1 8.11984e-14 1.92915e-06 C 0.0124101 0.0495295 0.181225 
9537 1 6.18766e-14 1.76208e-06 C 0.0154021 0.0495295 0.176009 
7602 1 6.82141e-14 1.82029e-06 C 0.75294 0.0486593 0.177892 
9301 1 6.92894e-14 1.8298e-06 C 0.0243782 0.0512699 0.178193 
7838 1 6.6624e-14 1.80603e-06 C 0.0288663 0.0538806 0.177438 
8189 1 7.36548e-14 1.86745e-06 C 0.12162 0.0538806 0.179364 
10718 1 8.03189e-14 1.92216e-06 C 0.0154021 0.0564912 0.181018 
9899 1 8.2231e-14 1.93729e-06 C 0.0557946 0.0573614 0.181466 
7781 1 7.33395e-14 1.86478e-06 C 0.00941804 0.059972 0.179282 
8886 1 6.10141e-14 1.75385e-06 C 0.0183942 0.059972 0.175736 
8204 1 6.30717e-14 1.77335e-06 C 0.509089 0.059972 0.17638 
9150 1 6.73781e-14 1.81282e-06 C 0.743964 0.0591018 0.177508 
9970 1 7.17172e-14 1.85093e-06 C 0.277206 0.0625827 0.178854 
8887 1 7.41166e-14 1.87135e-06 C 0.362479 0.0617124 0.179484 
12655 1 7.29948e-14 1.86186e-06 C 0.150044 0.063986 0.179192 
14416 1 6.45064e-14 1.78669e-06 C 0.0243782 0.0657265 0.176815 
15128 1 6.17172e-14 1.76056e-06 C 0.0213862 0.0692073 0.175959 
14246 1 6.11176e-14 1.75484e-06 C 0.0393384 0.0744286 0.175769 
14583 1 8.02194e-14 1.92136e-06 C 0.278702 0.076169 0.180994 
14959 1 8.11984e-14 1.92915e-06 C 0.0124101 0.0796498 0.181225 
14961 1 6.18766e-14 1.76208e-06 C 0.0154021 0.0796498 0.176009 
13026 1 6.82141e-14 1.82029e-06 C 0.75294 0.0787796 0.177892 
14725 1 6.92894e-14 1.8298e-06 C 0.0243782 0.0813903 0.178193 
13262 1 6.6624e-14 1.80603e-06 C 0.0288663 0.0840009 0.177438 
13613 1 7.36548e-14 1.86745e-06 C 0.12162 0.0840009 0.179364 
16142 1 8.03189e-14 1.92216e-06 C 0.0154021 0.0866115 0.181018 
15323 1 8.2231e-14 1.93729e-06 C 0.0557946 0.0874817 0.181466 
13205 1 7.33395e-14 1.86478e-06 C 0.00941804 0.0900924 0.179282 
14310 1 6.10141e-14 1.75385e-06 C 0.0183942 0.0900924 0.175736 
13628 1 6.30717e-14 1.77335e-06 C 0.509089 0.0900924 0.17638 
14574 1 6.73781e-14 1.81282e-06 C 0.743964 0.0892221 0.177508 
15394 1 7.17172e-14 1.85093e-06 C 0.277206 0.092703 0.178854 
14311 1 7.41166e-14 1.87135e-06 C 0.362479 0.0918328 0.179484 
265 1 3.78239e-13 3.22184e-06 C 0.0103531 0.00320151 0.226397 
87 1 1.34299e-12 4.91519e-06 C 0.012962 0.0042555 0.270283 
1973 1 1.51933e-13 2.3772e-06 C 0.0124101 0.00374538 0.193177 
266 1 1.63826e-12 5.25183e-06 C 0.0158175 0.00374465 0.262853 
40 1 2.98937e-12 6.41764e-06 C 0.0184291 0.00372405 0.266034 
334 1 2.10308e-12 5.70779e-06 C 0.0249022 0.00343995 0.263956 
2404 1 3.28528e-13 3.07402e-06 C 0.0303623 0.00374538 0.208611 
1169 1 7.83077e-13 4.1063e-06 C 0.0333544 0.00390467 0.232634 
5167 1 4.56226e-13 3.42959e-06 C 0.0393384 0.00374538 0.215644 
3724 1 2.3675e-13 2.756e-06 C 0.0513066 0.00374538 0.201899 
2996 1 2.61029e-13 2.84716e-06 C 0.0632747 0.00374538 0.203871 
243 1 1.07582e-12 4.56488e-06 C 0.0662668 0.00374538 0.235938 
1328 1 4.34674e-13 3.37471e-06 C 0.0692588 0.00374538 0.214586 
894 1 1.55084e-12 5.1567e-06 C 0.081227 0.00394841 0.250447 
2307 1 5.86577e-13 3.72927e-06 C 0.0951213 0.00312555 0.232927 
2448 1 6.28058e-13 3.81519e-06 C 0.102171 0.00425827 0.234477 
548 1 1.80346e-12 5.42273e-06 C 0.156028 0.00374566 0.249866 
2805 1 2.61436e-12 6.13721e-06 C 0.17697 0.00405553 0.266821 
116 1 1.16225e-12 4.68399e-06 C 0.179964 0.00374538 0.237932 
5295 1 1.9235e-12 5.54047e-06 C 0.191638 0.00357368 0.258628 
4530 1 9.18524e-13 4.33058e-06 C 0.257757 0.00374538 0.231954 
4352 1 2.87762e-12 6.33666e-06 C 0.266733 0.00374538 0.263944 
4832 1 7.24419e-13 4.0011e-06 C 0.269725 0.00374413 0.226124 
1996 1 7.93445e-13 4.12434e-06 C 0.280134 0.00318131 0.244942 
2723 1 1.01976e-12 4.48417e-06 C 0.284686 0.00374563 0.234538 
1349 1 1.75198e-12 5.37063e-06 C 0.287678 0.00374556 0.249054 
4127 1 2.05947e-13 2.63088e-06 C 0.329566 0.00374538 0.199119 
3747 1 4.57162e-13 3.43194e-06 C 0.356494 0.00374077 0.215385 
5131 1 1.6166e-12 5.22858e-06 C 0.377439 0.00374546 0.246784 
2778 1 1.91736e-12 5.53457e-06 C 0.397546 0.00314103 0.265985 
4871 1 1.28389e-13 2.24746e-06 C 0.401375 0.00374538 0.189943 
5259 1 1.25189e-12 4.80143e-06 C 0.446971 0.0037132 0.263598 
2477 1 1.45487e-12 5.04805e-06 C 0.461999 0.00328982 0.255265 
2037 1 1.6925e-12 5.30916e-06 C 0.513309 0.00303094 0.25473 
4465 1 2.09242e-12 5.69812e-06 C 0.574912 0.00374651 0.254126 
4676 1 6.42737e-13 3.84468e-06 C 0.589874 0.00374538 0.223383 
2591 1 2.14288e-12 5.74357e-06 C 0.601293 0.0034282 0.264575 
3289 1 2.85067e-12 6.31681e-06 C 0.604834 0.00433961 0.272469 
2280 1 9.81214e-13 4.42694e-06 C 0.607826 0.00427209 0.24431 
3760 1 4.38464e-13 3.38449e-06 C 0.610818 0.00374538 0.214775 
4979 1 2.33879e-12 5.91352e-06 C 0.664845 0.00349905 0.267775 
4758 1 8.13189e-13 4.15827e-06 C 0.685619 0.00374538 0.228966 
2834 1 1.87117e-12 5.48976e-06 C 0.688611 0.00374567 0.250903 
2397 1 1.2758e-12 4.83181e-06 C 0.70596 0.00345455 0.253878 
3959 1 2.2431e-12 5.83175e-06 C 0.710606 0.00313395 0.26499 
3198 1 1.15135e-12 4.6693e-06 C 0.721524 0.00376393 0.238137 
4770 1 2.78416e-12 6.2673e-06 C 0.734139 0.00336857 0.27259 
3730 1 5.95474e-13 3.74803e-06 C 0.748452 0.00374538 0.221619 
1058 1 1.14393e-12 4.65924e-06 C 0.82409 0.00325796 0.249471 
1364 1 1.30341e-12 4.86642e-06 C 0.828658 0.00379529 0.26316 
4126 1 1.88974e-12 5.50787e-06 C 0.873883 0.00360889 0.257057 
3464 1 2.14413e-13 2.66645e-06 C 0.901043 0.00374634 0.199533 
3874 1 4.68411e-13 3.45986e-06 C 0.906416 0.00359727 0.238905 
4474 1 2.21358e-12 5.80605e-06 C 0.91192 0.00310905 0.264127 
5308 1 8.35239e-13 4.19552e-06 C 0.943044 0.00368157 0.233333 
5302 1 1.67328e-12 5.28898e-06 C 0.963575 0.00434162 0.268997 
5303 1 3.46206e-12 6.7395e-06 C 0.966866 0.00374917 0.269514 
2125 1 2.13527e-12 5.73676e-06 C 0.006426 0.00548294 0.254863 
2544 1 8.06508e-13 4.14685e-06 C 0.0154123 0.0054913 0.228884 
1513 1 9.44068e-13 4.37036e-06 C 0.0282069 0.00598928 0.245785 
115 1 1.91338e-12 5.53074e-06 C 0.0332587 0.00576259 0.263972 
2023 1 2.94613e-13 2.96438e-06 C 0.0363453 0.00548815 0.206078 
4432 1 1.63355e-13 2.43534e-06 C 0.0483145 0.0054858 0.19458 
1359 1 2.89425e-12 6.34884e-06 C 0.0543228 0.00550051 0.264739 
4791 1 3.05608e-13 3.0008e-06 C 0.084219 0.0054858 0.207105 
1692 1 7.89383e-13 4.11729e-06 C 0.0991784 0.00548523 0.228193 
4663 1 2.35577e-13 2.75144e-06 C 0.108155 0.0054858 0.201799 
4452 1 2.13354e-13 2.66205e-06 C 0.123116 0.0054858 0.19982 
556 1 2.49751e-12 6.04438e-06 C 0.14406 0.0054858 0.259524 
2918 1 1.65297e-12 5.26749e-06 C 0.157595 0.00597958 0.264072 
1903 1 3.54656e-13 3.15344e-06 C 0.167996 0.00548681 0.21014 
4262 1 1.49956e-12 5.09922e-06 C 0.192188 0.0056348 0.251334 
2061 1 7.46244e-13 4.04088e-06 C 0.203901 0.0054858 0.226899 
908 1 1.43073e-12 5.01998e-06 C 0.218888 0.00462907 0.256057 
2651 1 1.75283e-12 5.3715e-06 C 0.251817 0.00551267 0.250327 
4108 1 1.25373e-12 4.80379e-06 C 0.306931 0.00594998 0.258317 
3164 1 1.18819e-12 4.71858e-06 C 0.317431 0.00600865 0.261329 
4055 1 8.46209e-13 4.21381e-06 C 0.342212 0.00588022 0.242836 
2860 1 1.57082e-12 5.17875e-06 C 0.344528 0.00548505 0.245892 
5288 1 1.92454e-12 5.54147e-06 C 0.36547 0.00499782 0.26042 
1323 1 4.9314e-13 3.5197e-06 C 0.375339 0.00600539 0.231573 
3473 1 2.69835e-13 2.87882e-06 C 0.380431 0.0054858 0.204546 
3040 1 2.45041e-12 6.00614e-06 C 0.445984 0.00564368 0.265037 
4600 1 1.80798e-12 5.42726e-06 C 0.455574 0.00551867 0.262257 
4346 1 2.22739e-12 5.8181e-06 C 0.461618 0.00583843 0.268743 
2787 1 1.59843e-12 5.20891e-06 C 0.470191 0.00459808 0.257594 
5003 1 1.15971e-12 4.68057e-06 C 0.491136 0.00548543 0.237879 
4608 1 2.33036e-12 5.90641e-06 C 0.517865 0.00560305 0.262194 
5332 1 9.59619e-13 4.39422e-06 C 0.533389 0.00569755 0.242496 
4241 1 2.16402e-12 5.76239e-06 C 0.54812 0.00556402 0.258725 
2231 1 1.01285e-12 4.47401e-06 C 0.601569 0.00546669 0.2473 
1456 1 3.72053e-12 6.9032e-06 C 0.613809 0.00548701 0.272312 
4484 1 1.04393e-12 4.51933e-06 C 0.643704 0.00550144 0.235931 
4398 1 2.48841e-12 6.03703e-06 C 0.664223 0.00581531 0.27034 
3343 1 7.02538e-13 3.9604e-06 C 0.669975 0.0058834 0.238955 
4654 1 7.31179e-13 4.0135e-06 C 0.685488 0.00556113 0.230878 
4553 1 3.86534e-13 3.24523e-06 C 0.709555 0.00488325 0.226317 
2431 1 2.46886e-12 6.02118e-06 C 0.724515 0.00548605 0.259152 
4307 1 7.91483e-13 4.12094e-06 C 0.757713 0.00503996 0.271327 
3998 1 1.5741e-12 5.18235e-06 C 0.778406 0.00550538 0.247102 
5238 1 3.43454e-12 6.72159e-06 C 0.826245 0.00548601 0.269667 
4894 1 8.11877e-13 4.15604e-06 C 0.856165 0.0054858 0.228927 
3727 1 2.62157e-13 2.85126e-06 C 0.865141 0.0054858 0.203958 
2179 1 1.17844e-13 2.18416e-06 C 0.877109 0.0054858 0.188307 
4448 1 3.3466e-13 3.09303e-06 C 0.883094 0.00548826 0.208851 
4078 1 2.37853e-12 5.94683e-06 C 0.886029 0.00550362 0.259789 
3675 1 3.16753e-12 6.54269e-06 C 0.895062 0.00548585 0.266977 
3468 1 5.33226e-13 3.6126e-06 C 0.913014 0.0054858 0.219111 
3588 1 2.05858e-12 5.66724e-06 C 0.990806 0.00548472 0.253646 
1049 1 5.53392e-13 3.65758e-06 C 0.00481299 0.00628817 0.224325 
4801 1 4.96454e-13 3.52757e-06 C 0.00794027 0.00634547 0.218266 
5022 1 1.33015e-13 2.27413e-06 C 0.0109141 0.00635602 0.19062 
1645 1 1.5569e-13 2.39664e-06 C 0.0139061 0.00635602 0.193649 
3772 1 1.16984e-13 2.17884e-06 C 0.0168974 0.00635586 0.187741 
2008 1 5.5136e-13 3.65309e-06 C 0.0617803 0.0063564 0.219743 
983 1 1.69984e-12 5.31682e-06 C 0.0827848 0.00632013 0.250031 
2859 1 6.60671e-13 3.88011e-06 C 0.124612 0.00635602 0.224024 
2031 1 1.88752e-12 5.50571e-06 C 0.127694 0.00630753 0.25355 
2656 1 2.04276e-12 5.65268e-06 C 0.175476 0.00635653 0.253466 
1592 1 1.52091e-12 5.12331e-06 C 0.229332 0.00635503 0.245043 
4822 1 7.65487e-13 4.07532e-06 C 0.241301 0.00635602 0.227508 
2884 1 1.75585e-12 5.37458e-06 C 0.253269 0.00737109 0.259825 
3018 1 1.57419e-12 5.18245e-06 C 0.268077 0.00612053 0.257077 
2894 1 1.02091e-12 4.48586e-06 C 0.271597 0.00613757 0.244096 
3732 1 1.56309e-13 2.39981e-06 C 0.28319 0.00635602 0.193726 
1472 1 1.67447e-12 5.29024e-06 C 0.289174 0.00635626 0.247772 
3781 1 1.44769e-12 5.03973e-06 C 0.312566 0.00604034 0.254383 
2036 1 4.17748e-13 3.33033e-06 C 0.316071 0.00633787 0.215088 
4453 1 2.28974e-13 2.72549e-06 C 0.319093 0.00635592 0.201 
3146 1 2.7801e-12 6.26425e-06 C 0.322056 0.00633812 0.263433 
2773 1 2.65937e-12 6.17223e-06 C 0.331164 0.00629708 0.263967 
1573 1 1.59435e-12 5.20447e-06 C 0.333454 0.00607373 0.259434 
5352 1 7.96013e-13 4.12879e-06 C 0.369855 0.00629599 0.232014 
5052 1 2.10943e-12 5.71352e-06 C 0.390903 0.00635602 0.254441 
3630 1 2.22938e-12 5.81983e-06 C 0.430069 0.00620088 0.262256 
4856 1 5.49314e-13 3.64857e-06 C 0.447752 0.00635602 0.219782 
3081 1 1.64896e-12 5.26323e-06 C 0.450286 0.00608994 0.256893 
4029 1 1.70635e-12 5.32359e-06 C 0.492632 0.00677628 0.256522 
4487 1 2.33542e-12 5.91068e-06 C 0.495624 0.00635607 0.257478 
3736 1 2.5986e-13 2.84291e-06 C 0.537513 0.00635602 0.20378 
4069 1 1.27952e-12 4.8365e-06 C 0.546085 0.00612089 0.24985 
4904 1 7.77715e-13 4.09691e-06 C 0.570971 0.00603842 0.240245 
4083 1 1.75586e-12 5.3746e-06 C 0.588378 0.0072533 0.260107 
3204 1 2.41794e-12 5.97949e-06 C 0.591051 0.00617104 0.265451 
4406 1 1.23657e-12 4.78177e-06 C 0.597354 0.00738948 0.251069 
2958 1 1.21409e-12 4.75262e-06 C 0.600346 0.00685163 0.24886 
5006 1 3.0736e-12 6.47737e-06 C 0.603338 0.00668604 0.27204 
2979 1 2.65952e-12 6.17234e-06 C 0.606331 0.00635666 0.261404 
5277 1 3.00602e-12 6.42954e-06 C 0.621545 0.00621244 0.270736 
5019 1 1.05988e-12 4.54222e-06 C 0.657193 0.00635649 0.235511 
2902 1 3.48903e-12 6.75695e-06 C 0.711125 0.00631231 0.271991 
5195 1 3.6468e-12 6.8573e-06 C 0.720027 0.00635602 0.271672 
1759 1 4.17769e-13 3.33039e-06 C 0.803431 0.00613961 0.225421 
4215 1 1.49052e-12 5.08896e-06 C 0.809788 0.00674603 0.252598 
2891 1 2.59026e-12 6.1183e-06 C 0.812781 0.00635563 0.260646 
3170 1 1.62573e-12 5.23841e-06 C 0.888151 0.00618955 0.262548 
4980 1 2.36726e-12 5.93742e-06 C 0.91451 0.00655377 0.262107 
1543 1 6.17118e-13 3.7929e-06 C 0.00786009 0.00883718 0.256245 
4696 1 1.79463e-13 2.5129e-06 C 0.00792202 0.00809644 0.196412 
1302 1 6.72147e-13 3.90245e-06 C 0.00960245 0.00824776 0.25661 
8 1 2.66729e-12 6.17836e-06 C 0.0115834 0.00848668 0.271357 
652 1 7.34297e-13 4.0192e-06 C 0.013906 0.00810271 0.226278 
2519 1 1.37237e-13 2.29794e-06 C 0.0154019 0.00896644 0.191124 
2532 1 3.23371e-13 3.05785e-06 C 0.0183924 0.0089657 0.208063 
4446 1 1.27196e-13 2.24048e-06 C 0.0258743 0.00809644 0.189765 
508 1 3.06786e-13 3.00466e-06 C 0.0273703 0.00896665 0.207185 
2563 1 1.46271e-12 5.0571e-06 C 0.0288658 0.0080962 0.244036 
749 1 2.41283e-12 5.97528e-06 C 0.0318589 0.00809624 0.25846 
2155 1 3.91412e-13 3.25882e-06 C 0.0333542 0.00896673 0.212311 
2810 1 1.23254e-12 4.77657e-06 C 0.0378424 0.00809644 0.239468 
2301 1 3.21385e-13 3.05158e-06 C 0.0408345 0.00809644 0.208152 
1826 1 1.19116e-12 4.72251e-06 C 0.0516277 0.0087816 0.24672 
1394 1 1.09065e-12 4.58575e-06 C 0.0579776 0.00856726 0.248442 
789 1 2.50791e-12 6.05276e-06 C 0.0616701 0.00816009 0.262421 
2551 1 4.68985e-13 3.46127e-06 C 0.0689498 0.00878686 0.226285 
903 1 3.71343e-12 6.89881e-06 C 0.0902047 0.00899018 0.272722 
759 1 1.54776e-12 5.15328e-06 C 0.096187 0.00896608 0.245581 
3341 1 9.76222e-14 2.05131e-06 C 0.111147 0.00896665 0.184727 
1368 1 8.59314e-13 4.23545e-06 C 0.114238 0.00890887 0.233663 
2024 1 1.16646e-12 4.68964e-06 C 0.115635 0.00779888 0.245033 
1760 1 2.6919e-13 2.87653e-06 C 0.127604 0.00809644 0.204497 
3821 1 4.66437e-13 3.45499e-06 C 0.133588 0.00809742 0.216087 
3457 1 1.36427e-12 4.94101e-06 C 0.138959 0.00845379 0.253385 
2718 1 2.43129e-12 5.99048e-06 C 0.142566 0.0080947 0.258639 
3921 1 3.65566e-13 3.18545e-06 C 0.14406 0.00896665 0.210862 
3686 1 1.27964e-12 4.83666e-06 C 0.152572 0.00840003 0.261756 
3690 1 7.77275e-13 4.09613e-06 C 0.162014 0.00896643 0.227668 
1180 1 1.33722e-12 4.90814e-06 C 0.175164 0.00845434 0.257078 
3266 1 1.83631e-12 5.45545e-06 C 0.195805 0.00845446 0.260905 
2930 1 2.96659e-12 6.4013e-06 C 0.19812 0.00889958 0.270771 
1665 1 2.84028e-13 2.92844e-06 C 0.205397 0.00809644 0.205595 
3519 1 2.39658e-12 5.96184e-06 C 0.209935 0.00893837 0.259519 
1924 1 2.60917e-12 6.13315e-06 C 0.217786 0.00833263 0.269219 
2738 1 9.08877e-13 4.31537e-06 C 0.222234 0.00874489 0.24155 
3155 1 2.36004e-12 5.93137e-06 C 0.227837 0.00896633 0.257795 
3705 1 1.33949e-12 4.91092e-06 C 0.233848 0.00895113 0.242528 
2496 1 2.14741e-12 5.74761e-06 C 0.254976 0.00884413 0.260077 
3067 1 7.80147e-13 4.10117e-06 C 0.266732 0.00896588 0.227985 
2450 1 1.54317e-12 5.14818e-06 C 0.26836 0.00817232 0.249238 
4507 1 3.22992e-13 3.05666e-06 C 0.271222 0.00809653 0.208183 
1380 1 8.09402e-13 4.15181e-06 C 0.272775 0.00808028 0.264581 
3054 1 2.19822e-12 5.79259e-06 C 0.277205 0.00809551 0.255556 
4327 1 1.45751e-12 5.05111e-06 C 0.287983 0.0086457 0.25751 
3113 1 4.63574e-13 3.44791e-06 C 0.29815 0.00809644 0.215995 
3106 1 8.47161e-13 4.21539e-06 C 0.305568 0.00893101 0.232121 
1057 1 2.23123e-12 5.82144e-06 C 0.311217 0.00873542 0.264288 
3571 1 8.80178e-13 4.26946e-06 C 0.315751 0.0083004 0.240308 
2587 1 3.09564e-12 6.49281e-06 C 0.317757 0.00887516 0.270006 
4739 1 3.50972e-13 3.14249e-06 C 0.322086 0.00809644 0.21 
3596 1 3.60571e-13 3.17088e-06 C 0.337046 0.00809644 0.21057 
2767 1 2.11489e-12 5.71845e-06 C 0.35636 0.00888803 0.258065 
4355 1 3.50137e-13 3.13999e-06 C 0.372948 0.00809484 0.209774 
1623 1 1.17807e-12 4.70514e-06 C 0.380989 0.00864158 0.249545 
4161 1 2.95178e-12 6.39063e-06 C 0.397031 0.00818219 0.268079 
5395 1 1.18175e-12 4.71004e-06 C 0.399879 0.00809644 0.238365 
3869 1 1.66293e-12 5.27805e-06 C 0.406701 0.00858638 0.258606 
4576 1 1.5026e-12 5.10266e-06 C 0.408856 0.00809557 0.244711 
2832 1 1.12855e-13 2.15289e-06 C 0.426807 0.00809644 0.187483 
3197 1 6.10879e-13 3.78008e-06 C 0.425752 0.0087107 0.234002 
5018 1 2.84727e-12 6.3143e-06 C 0.448785 0.00869938 0.271933 
5398 1 1.65392e-12 5.2685e-06 C 0.45224 0.00896665 0.247447 
5364 1 1.76433e-12 5.38322e-06 C 0.465708 0.00809735 0.24928 
5200 1 1.67508e-12 5.29088e-06 C 0.477675 0.00809523 0.247663 
4708 1 6.09328e-13 3.77688e-06 C 0.485391 0.0088278 0.22994 
4909 1 1.39401e-12 4.97666e-06 C 0.494565 0.00871288 0.252396 
3097 1 9.13405e-13 4.32252e-06 C 0.496377 0.00831701 0.252565 
2322 1 2.63238e-12 6.15128e-06 C 0.498616 0.00809565 0.26114 
2384 1 1.6606e-12 5.27559e-06 C 0.504601 0.00809644 0.24756 
854 1 6.10794e-13 3.7799e-06 C 0.512081 0.00896671 0.222141 
3242 1 2.47981e-12 6.03007e-06 C 0.516665 0.00815148 0.261779 
4287 1 8.65569e-13 4.2457e-06 C 0.51956 0.00809675 0.230386 
3840 1 2.14621e-12 5.74654e-06 C 0.544858 0.00888784 0.258447 
4333 1 1.47879e-12 5.07557e-06 C 0.583889 0.00896561 0.244317 
3511 1 1.07831e-12 4.5684e-06 C 0.592866 0.00896671 0.235981 
5406 1 2.42099e-12 5.98201e-06 C 0.604834 0.00896692 0.258559 
4826 1 2.88336e-12 6.34087e-06 C 0.62578 0.00896866 0.26392 
3635 1 2.17929e-12 5.77592e-06 C 0.646722 0.008967 0.255396 
4613 1 1.84312e-12 5.46219e-06 C 0.655698 0.00896665 0.250515 
4141 1 2.34522e-12 5.91894e-06 C 0.700446 0.00888879 0.26097 
5243 1 3.29218e-12 6.62741e-06 C 0.709557 0.00896587 0.268218 
4578 1 1.53455e-12 5.13858e-06 C 0.737979 0.00809622 0.245355 
4908 1 2.3439e-12 5.91783e-06 C 0.766114 0.00879742 0.264054 
3233 1 2.40975e-12 5.97274e-06 C 0.77089 0.00780355 0.264126 
3336 1 3.5496e-13 3.15434e-06 C 0.775589 0.00884522 0.218287 
4423 1 3.26582e-12 6.60967e-06 C 0.785852 0.00809543 0.267977 
4689 1 1.62571e-12 5.23837e-06 C 0.794785 0.00812162 0.248277 
3400 1 4.22388e-13 3.34262e-06 C 0.821757 0.00809644 0.213963 
4318 1 2.12569e-12 5.72817e-06 C 0.823252 0.00896645 0.254579 
3658 1 3.91281e-13 3.25846e-06 C 0.83971 0.00809596 0.212141 
4371 1 7.12196e-13 3.97847e-06 C 0.844197 0.00896694 0.225764 
1001 1 1.88296e-12 5.50127e-06 C 0.860653 0.00809874 0.250994 
4641 1 7.18364e-13 3.98992e-06 C 0.895062 0.00896754 0.22593 
4704 1 2.1972e-12 5.79169e-06 C 0.899631 0.00814765 0.257745 
4966 1 1.71781e-12 5.33549e-06 C 0.93695 0.00896562 0.24844 
4755 1 2.65134e-12 6.16602e-06 C 0.968367 0.00809644 0.261371 
193 1 4.84388e-13 3.49876e-06 C 0.006426 0.00979597 0.231752 
366 1 1.81891e-12 5.43817e-06 C 0.0722512 0.010231 0.258787 
4533 1 1.21224e-12 4.7502e-06 C 0.119841 0.00963596 0.261478 
4444 1 5.73255e-13 3.70082e-06 C 0.137365 0.00911438 0.252922 
1964 1 7.41938e-13 4.0331e-06 C 0.194924 0.0103281 0.236092 
2406 1 1.53256e-12 5.13635e-06 C 0.215868 0.00948713 0.254891 
4511 1 5.03403e-13 3.54395e-06 C 0.232862 0.0102961 0.260129 
808 1 1.73725e-12 5.35554e-06 C 0.281752 0.0101877 0.260389 
5134 1 1.11486e-12 4.61944e-06 C 0.353998 0.00991778 0.266628 
2752 1 9.46216e-13 4.37367e-06 C 0.574877 0.0100615 0.245898 
4655 1 1.5157e-12 5.11745e-06 C 0.577904 0.010349 0.252518 
4372 1 2.5442e-12 6.08182e-06 C 0.637747 0.00911602 0.263232 
3215 1 5.46862e-13 3.64313e-06 C 0.64373 0.00956544 0.232775 
5042 1 2.99802e-12 6.42383e-06 C 0.71554 0.00922605 0.270253 
3524 1 3.97772e-13 3.27638e-06 C 0.74546 0.00930322 0.222681 
2236 1 1.35251e-12 4.92678e-06 C 0.820261 0.00913331 0.246068 
5353 1 1.40681e-12 4.99185e-06 C 0.847189 0.00925811 0.249581 
4932 1 4.10777e-13 3.3117e-06 C 0.00739652 0.0112716 0.227506 
1960 1 2.14143e-13 2.66533e-06 C 0.0109141 0.0115773 0.199893 
748 1 1.2813e-12 4.83874e-06 C 0.0124101 0.0107071 0.240492 
85 1 1.1876e-12 4.7178e-06 C 0.0144477 0.0112014 0.252028 
798 1 5.21809e-13 3.58663e-06 C 0.0162997 0.0112284 0.232579 
4777 1 1.75896e-13 2.49613e-06 C 0.0154015 0.0107058 0.195855 
5221 1 2.9615e-13 2.96952e-06 C 0.0183942 0.0107071 0.206455 
1037 1 2.0855e-13 2.64192e-06 C 0.0206688 0.0111243 0.217484 
4351 1 8.64999e-14 1.97025e-06 C 0.0198902 0.0115773 0.182429 
4990 1 1.19125e-13 2.19205e-06 C 0.0213862 0.010707 0.18851 
2348 1 8.86563e-13 4.27976e-06 C 0.0243782 0.0107071 0.231078 
466 1 1.51812e-12 5.12017e-06 C 0.02584 0.0119311 0.253951 
655 1 1.62508e-12 5.2377e-06 C 0.0275778 0.0108096 0.252649 
2122 1 1.69102e-13 2.46357e-06 C 0.0348504 0.0115773 0.195252 
1751 1 1.0989e-12 4.59729e-06 C 0.0447646 0.0110281 0.247811 
1585 1 4.852e-13 3.50071e-06 C 0.0513073 0.0107065 0.216898 
239 1 1.96021e-12 5.57549e-06 C 0.056098 0.0114083 0.259458 
4764 1 2.57219e-13 2.83324e-06 C 0.0572908 0.010707 0.203566 
1042 1 9.10759e-13 4.31834e-06 C 0.058786 0.0115776 0.231719 
336 1 3.61903e-13 3.17478e-06 C 0.0752429 0.0107071 0.210649 
2825 1 8.36216e-13 4.19716e-06 C 0.0880159 0.0107033 0.258266 
3425 1 4.33765e-13 3.37236e-06 C 0.0899553 0.0108524 0.223202 
1130 1 1.70611e-12 5.32335e-06 C 0.0916998 0.0115761 0.248223 
795 1 1.22302e-12 4.76424e-06 C 0.10521 0.010734 0.240741 
1848 1 2.02254e-13 2.61506e-06 C 0.106659 0.0115773 0.198761 
1728 1 8.21468e-13 4.17234e-06 C 0.111147 0.0107071 0.229212 
1132 1 2.26275e-12 5.84872e-06 C 0.123115 0.0107065 0.256475 
1269 1 3.78717e-13 3.2232e-06 C 0.127604 0.0115773 0.211615 
807 1 1.73094e-12 5.34905e-06 C 0.1291 0.0107071 0.248726 
1524 1 2.36584e-12 5.93623e-06 C 0.1384 0.0108958 0.264808 
4374 1 1.64072e-13 2.4389e-06 C 0.14406 0.0107071 0.194665 
1803 1 1.74444e-12 5.36292e-06 C 0.148547 0.0115772 0.24888 
341 1 1.84603e-12 5.46507e-06 C 0.157084 0.0113211 0.259638 
3128 1 3.16227e-12 6.53906e-06 C 0.1665 0.0115775 0.266963 
1828 1 1.34188e-12 4.91383e-06 C 0.176802 0.0108064 0.246592 
3033 1 1.4203e-12 5.00775e-06 C 0.186956 0.0112935 0.253306 
4628 1 5.63554e-13 3.67983e-06 C 0.208692 0.0114006 0.22987 
5291 1 5.87072e-13 3.73032e-06 C 0.210046 0.0108011 0.22701 
1182 1 9.31084e-13 4.35023e-06 C 0.214517 0.0111465 0.253154 
3458 1 5.1212e-13 3.56429e-06 C 0.216088 0.0112124 0.244542 
3265 1 1.31548e-12 4.8814e-06 C 0.217753 0.0114265 0.252655 
1219 1 7.04441e-13 3.96397e-06 C 0.230993 0.0107444 0.233004 
2559 1 1.09423e-12 4.59077e-06 C 0.232325 0.0118076 0.242147 
3226 1 3.45738e-13 3.12679e-06 C 0.244294 0.011578 0.20962 
2896 1 7.25812e-13 4.00366e-06 C 0.253269 0.0115773 0.226238 
1862 1 6.69162e-13 3.89666e-06 C 0.260749 0.0107071 0.224322 
2470 1 1.68968e-13 2.46292e-06 C 0.266733 0.0107071 0.195236 
2096 1 1.19812e-12 4.73169e-06 C 0.283943 0.0111392 0.250726 
3937 1 8.37312e-13 4.19899e-06 C 0.31801 0.0109466 0.240215 
3077 1 2.26862e-12 5.85378e-06 C 0.322086 0.0115773 0.256607 
2815 1 3.0074e-12 6.43052e-06 C 0.328069 0.0117288 0.268399 
3122 1 1.1567e-12 4.67652e-06 C 0.334338 0.0114125 0.2454 
4846 1 2.74294e-13 2.89459e-06 C 0.34303 0.0115773 0.204881 
5127 1 9.08678e-13 4.31505e-06 C 0.347517 0.0107067 0.231602 
4517 1 1.14701e-12 4.66343e-06 C 0.363974 0.0115785 0.237508 
4188 1 3.51942e-12 6.77651e-06 C 0.368463 0.0107087 0.270433 
1894 1 1.78847e-12 5.40767e-06 C 0.389605 0.0108221 0.254799 
1506 1 3.69637e-12 6.88823e-06 C 0.401375 0.0107071 0.272126 
5297 1 2.39091e-12 5.95713e-06 C 0.407399 0.0107305 0.259199 
2951 1 1.80948e-12 5.42876e-06 C 0.410351 0.0107071 0.249988 
3221 1 3.93131e-13 3.26359e-06 C 0.411847 0.0115773 0.212414 
4675 1 1.4926e-12 5.09132e-06 C 0.423622 0.0114674 0.249685 
5347 1 2.10991e-12 5.71396e-06 C 0.428294 0.0108353 0.260416 
1262 1 3.33146e-12 6.65366e-06 C 0.434287 0.0106152 0.270587 
2984 1 3.29784e-12 6.6312e-06 C 0.444759 0.0116295 0.269457 
4833 1 3.22286e-12 6.58056e-06 C 0.467201 0.010708 0.267565 
3394 1 2.90227e-12 6.3547e-06 C 0.471313 0.0113575 0.271606 
5281 1 1.78581e-12 5.40498e-06 C 0.484796 0.0109206 0.257876 
2817 1 1.4366e-12 5.02683e-06 C 0.489719 0.0115327 0.24587 
5240 1 1.84662e-12 5.46565e-06 C 0.506097 0.0105526 0.254185 
4322 1 2.3865e-12 5.95346e-06 C 0.510585 0.0115775 0.258127 
4882 1 1.69681e-12 5.31365e-06 C 0.516215 0.011371 0.256251 
4134 1 3.43278e-12 6.72044e-06 C 0.542 0.0106921 0.269953 
4817 1 2.73903e-12 6.23325e-06 C 0.565937 0.0105936 0.264842 
2326 1 8.26109e-13 4.18018e-06 C 0.589715 0.0107972 0.234389 
4568 1 2.71114e-12 6.21203e-06 C 0.641939 0.0115283 0.271492 
4997 1 3.54305e-12 6.79165e-06 C 0.654203 0.0115791 0.270617 
4706 1 3.2217e-12 6.57978e-06 C 0.667666 0.010707 0.267542 
5149 1 2.15978e-12 5.75863e-06 C 0.670569 0.0111107 0.27168 
4808 1 1.9699e-12 5.58467e-06 C 0.699083 0.0115773 0.252435 
3308 1 2.4858e-12 6.03491e-06 C 0.717035 0.0115773 0.25938 
2084 1 1.10461e-12 4.60523e-06 C 0.749948 0.0115773 0.236616 
2574 1 8.42571e-13 4.20776e-06 C 0.781096 0.0108631 0.237696 
4168 1 2.73199e-12 6.22791e-06 C 0.794677 0.0114641 0.267023 
2218 1 1.7293e-12 5.34736e-06 C 0.811418 0.0108151 0.253818 
3405 1 4.21538e-13 3.34037e-06 C 0.81671 0.0110318 0.228322 
4136 1 1.60576e-12 5.21686e-06 C 0.825438 0.0111759 0.257746 
5066 1 2.51491e-12 6.05839e-06 C 0.831388 0.0111952 0.269575 
4707 1 1.90637e-12 5.52397e-06 C 0.885307 0.0111602 0.262245 
4806 1 2.72355e-12 6.22149e-06 C 0.891519 0.0110275 0.271463 
4551 1 1.74337e-12 5.36182e-06 C 0.898054 0.0107071 0.24893 
5193 1 1.31026e-12 4.87493e-06 C 0.91163 0.0115122 0.244456 
4749 1 8.21448e-13 4.1723e-06 C 0.927974 0.0107071 0.229208 
3399 1 4.37084e-13 3.38094e-06 C 0.932193 0.0114175 0.223777 
4554 1 2.53554e-12 6.0749e-06 C 0.956396 0.0115793 0.259898 
1307 1 1.48074e-12 5.0778e-06 C 0.00520036 0.0133423 0.254966 
264 1 6.11155e-13 3.78065e-06 C 0.00792282 0.0133188 0.222103 
1085 1 5.8852e-13 3.73339e-06 C 0.00924789 0.0131552 0.262065 
794 1 2.33879e-12 5.91353e-06 C 0.0111664 0.0132577 0.268349 
2136 1 3.77182e-13 3.21884e-06 C 0.0139061 0.0133177 0.211528 
4950 1 9.41227e-14 2.0265e-06 C 0.0168981 0.0133177 0.184034 
86 1 9.77253e-13 4.42098e-06 C 0.0197683 0.0133875 0.237335 
1246 1 4.08717e-13 3.30616e-06 C 0.0229059 0.0126037 0.229417 
1029 1 8.81984e-13 4.27238e-06 C 0.0268825 0.0134923 0.262435 
2716 1 8.53229e-14 1.96127e-06 C 0.0408345 0.0133177 0.182168 
1518 1 1.37234e-12 4.95074e-06 C 0.046853 0.0123367 0.255201 
2966 1 4.58188e-13 3.4345e-06 C 0.0737471 0.0133179 0.215706 
2924 1 1.57808e-12 5.18671e-06 C 0.0797292 0.0131583 0.249926 
2872 1 2.89241e-12 6.3475e-06 C 0.127604 0.0133183 0.264058 
2019 1 6.18106e-13 3.79493e-06 C 0.133588 0.0133177 0.222478 
3052 1 4.69701e-13 3.46303e-06 C 0.148548 0.0133177 0.216285 
3907 1 1.91093e-12 5.52837e-06 C 0.15154 0.0133185 0.251498 
836 1 2.26928e-12 5.85434e-06 C 0.15769 0.0135101 0.26493 
3160 1 1.52995e-13 2.38273e-06 C 0.1665 0.0133177 0.193312 
2643 1 6.66641e-13 3.89176e-06 C 0.169492 0.0133177 0.224234 
1641 1 2.03967e-12 5.64983e-06 C 0.172484 0.0133177 0.253429 
5343 1 3.00766e-13 2.98487e-06 C 0.175476 0.0133178 0.206636 
3292 1 1.16525e-12 4.68802e-06 C 0.18146 0.0130647 0.244145 
4724 1 9.21546e-13 4.33532e-06 C 0.271221 0.0133177 0.232036 
2046 1 2.02844e-12 5.63945e-06 C 0.28319 0.0133177 0.25329 
4473 1 3.0625e-13 3.0029e-06 C 0.284707 0.0125032 0.26053 
4768 1 3.9191e-13 3.2602e-06 C 0.304134 0.0133177 0.212347 
1222 1 2.78631e-12 6.26891e-06 C 0.325077 0.0122051 0.272006 
4589 1 5.70946e-13 3.69585e-06 C 0.34303 0.0133181 0.220541 
2494 1 3.03134e-12 6.44754e-06 C 0.348684 0.0135123 0.27233 
2225 1 1.68784e-12 5.30428e-06 C 0.35773 0.0134697 0.254526 
2784 1 5.4753e-13 3.64462e-06 C 0.363975 0.0133175 0.219656 
2634 1 1.19133e-12 4.72273e-06 C 0.378935 0.0133179 0.238571 
5152 1 2.57594e-12 6.107e-06 C 0.411923 0.013362 0.262461 
2174 1 2.12662e-12 5.72901e-06 C 0.418141 0.0134972 0.261664 
1976 1 2.86369e-12 6.32642e-06 C 0.438775 0.0131167 0.267854 
5155 1 1.98618e-12 5.60001e-06 C 0.465741 0.0130426 0.26001 
3835 1 2.44433e-12 6.00117e-06 C 0.498617 0.0133159 0.258713 
2439 1 2.52636e-12 6.06757e-06 C 0.517043 0.0135051 0.271074 
5014 1 1.57723e-12 5.18579e-06 C 0.519485 0.0133607 0.248281 
5394 1 1.01218e-12 4.47304e-06 C 0.537057 0.0133095 0.253344 
3105 1 8.67568e-13 4.24897e-06 C 0.546489 0.0133178 0.230544 
3699 1 2.0122e-12 5.62436e-06 C 0.552473 0.0133184 0.252983 
2138 1 2.54348e-12 6.08124e-06 C 0.594448 0.0133678 0.262309 
3520 1 3.11626e-12 6.50719e-06 C 0.633537 0.0134814 0.272333 
2085 1 8.80586e-13 4.27012e-06 C 0.666171 0.0126862 0.242843 
4971 1 1.51711e-12 5.11904e-06 C 0.680815 0.0125155 0.268001 
3662 1 1.44796e-12 5.04004e-06 C 0.773884 0.0133175 0.243641 
3811 1 6.2925e-13 3.8176e-06 C 0.797819 0.0133171 0.222768 
4575 1 7.36206e-13 4.02268e-06 C 0.809789 0.0130549 0.233696 
4053 1 1.99313e-12 5.60654e-06 C 0.81887 0.0134174 0.257431 
2278 1 1.07932e-13 2.12112e-06 C 0.824749 0.0133177 0.186635 
5190 1 1.13939e-12 4.65307e-06 C 0.869763 0.0121349 0.253747 
4848 1 1.18981e-12 4.72072e-06 C 0.935454 0.0129652 0.246459 