LAMMPS (5 May 2020)
OMP_NUM_THREADS environment is not set. Defaulting to 1 thread. (src/comm.cpp:94)
  using 1 OpenMP thread(s) per MPI task

variable name string dump_integration

# initialisation ---------------------------------------------------

dimension 3
boundary p p p
units si
atom_style sphere

# univers ---------------------------------------------------

region		    mainbox block -7e-3 7e-3 -2e-5 2e-5 -2e-4 2e-4 units box
#create_box	    1 mainbox

read_data output.data
  orthogonal box = (-0.007 -2e-05 -0.0002) to (0.007 2e-05 0.0002)
  1 by 1 by 1 MPI processor grid
  reading atoms ...
  5424 atoms
  read_data CPU = 0.0180893 secs


fix		walls all wall/gran/region hooke/history 		4000.0 NULL 100.0 NULL 0.5 1 region mainbox

fix 1 all nve/sphere
fix 2 all gravity 1.0 vector 0 0 -1

# atoms ---------------------------------------------------

comm_modify vel yes

neighbor 0.0000001 bin
#neigh_modify	delay 0 every 1 check yes
neigh_modify delay 0 every 1 check yes page 500000 one 50000

#pair_style	hybrid gran/hooke 4000.0 NULL 100.0 NULL 0.5 1
#pair_coeff	* * gran/hooke
pair_style gran/hooke 200000.0 70000.0 50.0 30.0 0.5 0
pair_coeff	* *

# run ---------------------------------------------------

timestep 0.001

thermo_style    custom step cpu atoms
thermo_modify   lost ignore
thermo 100

#dump     1 all custom 50 ${name}.dump id type mass diameter element xs ys zs
dump 1 all image 50 ${name}-*.jpg type diameter zoom 1 axes yes 1 1     box yes 2 view 90 90 adiam 3e-4
dump 1 all image 50 dump_integration-*.jpg type diameter zoom 1 axes yes 1 1     box yes 2 view 90 90 adiam 3e-4

run     1000
Neighbor list info ...
  update every 1 steps, delay 0 steps, check yes
  max neighbors/atom: 50000, page size: 500000
  master list distance cutoff = 2.99299e-05
  ghost atom cutoff = 2.99299e-05
  binsize = 1.49649e-05, bins = 936 3 27
  1 neighbor lists, perpetual/occasional/extra = 1 0 0
  (1) pair gran/hooke, perpetual
      attributes: half, newton on, size
      pair build: half/size/bin/newton
      stencil: half/bin/3d/newton
      bin: standard
Per MPI rank memory allocation (min/avg/max) = 9.848 | 9.848 | 9.848 Mbytes
Step CPU Atoms 
       0            0     5424 
     100  0.076583238      131 
     200   0.12842631      129 
     300   0.19946387      129 
     400   0.25773429      129 
     500   0.28120056        0 
     600   0.29406829        0 
     700   0.31496872        0 
     800   0.33974515        0 
     900   0.35757275        0 
    1000   0.37494696        0 
Loop time of 0.374984 on 1 procs for 1000 steps with 0 atoms

90.8% CPU use with 1 MPI tasks x 1 OpenMP threads

MPI task timing breakdown:
Section |  min time  |  avg time  |  max time  |%varavg| %total
---------------------------------------------------------------
Pair    | 0.0010889  | 0.0010889  | 0.0010889  |   0.0 |  0.29
Neigh   | 0.16373    | 0.16373    | 0.16373    |   0.0 | 43.66
Comm    | 0.0202     | 0.0202     | 0.0202     |   0.0 |  5.39
Output  | 0.17661    | 0.17661    | 0.17661    |   0.0 | 47.10
Modify  | 0.008696   | 0.008696   | 0.008696   |   0.0 |  2.32
Other   |            | 0.004652   |            |       |  1.24

Nlocal:    0 ave 0 max 0 min
Histogram: 1 0 0 0 0 0 0 0 0 0
Nghost:    0 ave 0 max 0 min
Histogram: 1 0 0 0 0 0 0 0 0 0
Neighs:    0 ave 0 max 0 min
Histogram: 1 0 0 0 0 0 0 0 0 0

Total # of neighbors = 0
Neighbor list builds = 419
Dangerous builds = 419

print "All done"
All done
Total wall time: 0:00:00
