LAMMPS (5 May 2020)
OMP_NUM_THREADS environment is not set. Defaulting to 1 thread. (src/comm.cpp:94)
  using 1 OpenMP thread(s) per MPI task
clear
OMP_NUM_THREADS environment is not set. Defaulting to 1 thread. (src/comm.cpp:94)
  using 1 OpenMP thread(s) per MPI task
# -------------------- VARIABLES DEFINITION -----------------------
variable name string dump_integration

# -------------------- INITIALISATION -----------------------------

units       si
dimension   3
boundary    p   p   f
atom_style  sphere

# -------------------- UNIVERS ------------------------------------
#region          univers block -0.01 0.02 -0.01 0.01 -0.01 0.0005 units box
#create_box      1 univers
region		    mainbox block 0 0.010026607 0 0.0099519084 0 0.00017071021 units box
create_box	    1 mainbox
Created orthogonal box = (0 0 0) to (0.0100266 0.00995191 0.00017071)
  1 by 1 by 1 MPI processor grid

read_data output.data add merge
  orthogonal box = (0 0 0) to (0.0100266 0.00995191 0.00017071)
  1 by 1 by 1 MPI processor grid
  reading atoms ...
  16272 atoms
  read_data CPU = 0.0459349 secs

fix		walls all wall/gran/region hooke/history 		4000.0 NULL 100.0 NULL 0.5 1 region mainbox

#fix		walls all wall/gran/region granular region mainbox

comm_modify vel yes

fix 1 all nve/sphere
fix 2 all gravity 1.0 vector 0 0 -1

# -------------------- ATOMS ------------------------------------

neighbor 0.0000001 bin
#neigh_modify	delay 0 every 1 check yes
neigh_modify delay 0 every 1 check yes page 1000000 one 100000


pair_style	hybrid gran/hooke 4000.0 NULL 100.0 NULL 0.5 1
pair_coeff	* * gran/hooke

#pair_style granular
#pair_coeff	* * gran/hooke

#pair_style gran/hooke 200000.0 70000.0 50.0 30.0 0.5 0
#pair_coeff	* *

# -------------------- RUN --------------------------------------

timestep 0.00001

thermo_style    custom step cpu atoms
thermo_modify   lost ignore
thermo 500

dump   ovito all custom 500 ${name}.dump id type mass radius element xs ys zs
dump   ovito all custom 500 dump_integration.dump id type mass radius element xs ys zs
#dump    jpg all image 1000 ${name}-*.jpg type diameter zoom 1 axes yes 1 1 #    box yes 1 view 90 90 adiam 3e-4

run     10000
Neighbor list info ...
  update every 1 steps, delay 0 steps, check yes
  max neighbors/atom: 100000, page size: 1000000
  master list distance cutoff = 2.99299e-05
  ghost atom cutoff = 2.99299e-05
  binsize = 1.49649e-05, bins = 671 666 12
  1 neighbor lists, perpetual/occasional/extra = 1 0 0
  (1) pair gran/hooke, perpetual
      attributes: half, newton on, size
      pair build: half/size/bin/newton
      stencil: half/bin/3d/newton
      bin: standard
Per MPI rank memory allocation (min/avg/max) = 41.06 | 41.06 | 41.06 Mbytes
Step CPU Atoms 
       0            0    16272 
     500     4.599929    16272 
    1000    14.698781     6702 
    1500    20.855413       42 
    2000    26.712562        3 
    2500    30.745309        3 
    3000    32.148264        3 
    3500    36.350597        3 
    4000     42.22218        3 
    4500    44.083158        0 
    5000    44.083998        0 
    5500    44.084876        0 
    6000    44.085679        0 
    6500    44.086526        0 
    7000    44.087394        0 
    7500    44.088259        0 
    8000    44.089159        0 
    8500    44.090017        0 
    9000    44.090837        0 
    9500    44.091704        0 
   10000     44.09252        0 
Loop time of 44.0925 on 1 procs for 10000 steps with 0 atoms

99.4% CPU use with 1 MPI tasks x 1 OpenMP threads

MPI task timing breakdown:
Section |  min time  |  avg time  |  max time  |%varavg| %total
---------------------------------------------------------------
Pair    | 0.21156    | 0.21156    | 0.21156    |   0.0 |  0.48
Neigh   | 41.295     | 41.295     | 41.295     |   0.0 | 93.66
Comm    | 0.28458    | 0.28458    | 0.28458    |   0.0 |  0.65
Output  | 0.092134   | 0.092134   | 0.092134   |   0.0 |  0.21
Modify  | 1.841      | 1.841      | 1.841      |   0.0 |  4.18
Other   |            | 0.3682     |            |       |  0.84

Nlocal:    0 ave 0 max 0 min
Histogram: 1 0 0 0 0 0 0 0 0 0
Nghost:    0 ave 0 max 0 min
Histogram: 1 0 0 0 0 0 0 0 0 0
Neighs:    0 ave 0 max 0 min
Histogram: 1 0 0 0 0 0 0 0 0 0

Total # of neighbors = 0
Neighbor list builds = 3167
Dangerous builds = 2634

print "All done"
All done
Total wall time: 0:00:44
