LAMMPS (5 May 2020)
OMP_NUM_THREADS environment is not set. Defaulting to 1 thread. (src/comm.cpp:94)
  using 1 OpenMP thread(s) per MPI task
clear
OMP_NUM_THREADS environment is not set. Defaulting to 1 thread. (src/comm.cpp:94)
  using 1 OpenMP thread(s) per MPI task
# -------------------- VARIABLES DEFINITION -----------------------
variable name string dump_integration_lammps

# -------------------- INITIALISATION -----------------------------

units       si
dimension   3
boundary    f	f   f
atom_style  sphere

# -------------------- UNIVERS ------------------------------------
#region          univers block -0.01 0.02 -0.01 0.01 -0.01 0.0005 units box
#create_box      1 univers
region		    mainbox block 0 0.010026607 0 0.0099519084 0 0.00017071021 units box
create_box	    1 mainbox
Created orthogonal box = (0 0 0) to (0.0100266 0.00995191 0.00017071)
  1 by 1 by 1 MPI processor grid

read_data output_agdd.data add merge
  orthogonal box = (0 0 0) to (0.0100266 0.00995975 0.00017071)
  1 by 1 by 1 MPI processor grid
  reading atoms ...
  178992 atoms
  read_data CPU = 0.559158 secs

fix		walls all wall/gran/region hooke/history 		4000.0 NULL 100.0 NULL 0.5 1 region mainbox

#fix		walls all wall/gran/region granular region mainbox

comm_modify vel yes

fix 1 all nve/sphere
fix 2 all gravity 1.0 vector 0 0 -1

# -------------------- ATOMS ------------------------------------

neighbor 0.0001 bin
#neigh_modify	delay 0 every 1 check yes
neigh_modify delay 0 every 1 check yes page 1000000 one 100000


pair_style	hybrid gran/hooke 4000.0 NULL 100.0 NULL 0.5 1
pair_coeff	* * gran/hooke

#pair_style granular
#pair_coeff	* * gran/hooke

#pair_style gran/hooke 200000.0 70000.0 50.0 30.0 0.5 0
#pair_coeff	* *

# -------------------- RUN --------------------------------------

timestep 0.000001

thermo_style    custom step cpu atoms
thermo_modify   lost ignore
thermo 500

dump   ovito all custom 500 ${name}.dump id type mass radius element xs ys zs
dump   ovito all custom 500 dump_integration_lammps.dump id type mass radius element xs ys zs
#dump    jpg all image 1000 ${name}-*.jpg type diameter zoom 1 axes yes 1 1 #    box yes 1 view 90 90 adiam 3e-4

run     10000
Neighbor list info ...
  update every 1 steps, delay 0 steps, check yes
  max neighbors/atom: 100000, page size: 1000000
  master list distance cutoff = 0.00015966
  ghost atom cutoff = 0.00015966
  binsize = 7.98299e-05, bins = 126 125 3
  1 neighbor lists, perpetual/occasional/extra = 1 0 0
  (1) pair gran/hooke, perpetual
      attributes: half, newton on, size
      pair build: half/size/bin/newton
      stencil: half/bin/3d/newton
      bin: standard
Per MPI rank memory allocation (min/avg/max) = 122.5 | 122.5 | 122.5 Mbytes
Step CPU Atoms 
       0            0   178992 
     500    3.2053245     4153 
    1000    3.7164949     3791 
    1500    4.0662215     3566 
    2000    4.3292875     3504 
    2500    4.5799639     3469 
    3000    4.8044466     3466 
    3500    5.0466009     3462 
    4000    5.2602916     3462 
    4500    5.5508366     3459 
    5000    5.7660765     3429 
    5500    6.0984116     3395 
    6000    6.3199105     3394 
    6500    6.5355983     3393 
    7000     6.881901     3392 
    7500     7.178653     2783 
    8000    7.3625244      586 
    8500    7.3929932       41 
    9000    7.3980593        4 
    9500    7.3992079        3 
   10000     7.400189        3 
Loop time of 7.40021 on 1 procs for 10000 steps with 3 atoms

99.5% CPU use with 1 MPI tasks x 1 OpenMP threads

MPI task timing breakdown:
Section |  min time  |  avg time  |  max time  |%varavg| %total
---------------------------------------------------------------
Pair    | 0.77652    | 0.77652    | 0.77652    |   0.0 | 10.49
Neigh   | 3.6626     | 3.6626     | 3.6626     |   0.0 | 49.49
Comm    | 0.093926   | 0.093926   | 0.093926   |   0.0 |  1.27
Output  | 0.20279    | 0.20279    | 0.20279    |   0.0 |  2.74
Modify  | 2.3589     | 2.3589     | 2.3589     |   0.0 | 31.88
Other   |            | 0.3055     |            |       |  4.13

Nlocal:    3 ave 3 max 3 min
Histogram: 1 0 0 0 0 0 0 0 0 0
Nghost:    0 ave 0 max 0 min
Histogram: 1 0 0 0 0 0 0 0 0 0
Neighs:    0 ave 0 max 0 min
Histogram: 1 0 0 0 0 0 0 0 0 0

Total # of neighbors = 0
Ave neighs/atom = 0
Neighbor list builds = 1189
Dangerous builds = 785

print "All done"
All done
Total wall time: 0:00:09
