TEST 

5424 atoms 
1 atom types 
-7e-3 7e-3 xlo xhi
-2e-5 2e-5 ylo yhi
-2e-4 2e-4 zlo zhi

Atoms

1 1 1.792369e-05 2700 -0.004853234 -1.618107e-05 -4.193979e-05
2 1 1.554476e-05 2700 -0.001562371 -8.129647e-05 -6.700623e-06
3 1 1.323423e-05 2700 -0.004917229 0.0001154701 -9.085507e-06
4 1 1.26277e-05 2700 -0.004945204 5.679747e-05 -2.907282e-06
5 1 1.340439e-05 2700 -0.004953503 3.546574e-05 -1.529506e-05
6 1 1.797557e-05 2700 -0.004836982 -2.744936e-05 1.560073e-05
7 1 1.332568e-05 2700 -0.0032723 3.692118e-05 -2.075757e-05
8 1 1.235671e-05 2700 -0.004903289 -9.549456e-05 -5.215507e-05
9 1 1.84445e-05 2700 -0.004978209 3.822363e-05 4.93758e-06
10 1 2.33469e-05 2700 -0.004813668 0.0001430651 -1.278919e-05
11 1 1.519682e-05 2700 -0.004422829 -9.713122e-05 -3.725339e-05
12 1 1.208472e-05 2700 -0.004923106 -2.997761e-05 -5.136021e-05
13 1 1.454887e-05 2700 -0.004857338 8.037704e-05 4.909119e-06
14 1 1.260798e-05 2700 -0.004948811 -5.464249e-05 -4.396272e-05
15 1 1.094384e-05 2700 -0.004956799 5.08738e-05 -3.382618e-05
16 1 1.725637e-05 2700 -0.004764739 2.731321e-06 -4.271002e-05
17 1 1.529492e-05 2700 -0.004257417 -0.0001304362 -3.291442e-05
18 1 2.030613e-05 2700 -0.004606969 -0.0001289325 -4.02255e-05
19 1 1.495735e-05 2700 -0.003989292 5.334263e-05 -3.702867e-05
20 1 1.523126e-05 2700 -0.004819819 0.0001175263 -4.594438e-05
21 1 1.185295e-05 2700 -0.004650078 1.386176e-05 -5.144101e-05
22 1 1.558909e-05 2700 -0.003319542 0.0001040543 -4.844698e-05
23 1 2.095819e-05 2700 -0.002960022 9.294728e-05 -4.307824e-05
24 1 1.85983e-05 2700 -0.001658399 -9.681635e-05 -4.354108e-05
25 1 1.061783e-05 2700 -0.004237199 6.39006e-05 -5.517874e-05
26 1 8.100635e-06 2700 -0.00480489 0.0001307356 -5.805861e-05
27 1 2.266905e-05 2700 -0.003118034 -6.160388e-05 -3.767981e-05
28 1 2.190263e-05 2700 -0.003270749 7.009624e-05 -9.019924e-06
29 1 1.589141e-05 2700 -0.004112335 -3.577296e-05 -1.171405e-05
30 1 1.157318e-05 2700 -0.004206954 -8.748031e-06 -2.45937e-05
31 1 1.812214e-05 2700 -0.004782129 3.466078e-05 -4.549745e-05
32 1 2.208212e-05 2700 -0.004887656 -0.0001000806 3.983161e-06
33 1 1.963935e-05 2700 -0.004823754 -8.482434e-05 -4.061091e-05
34 1 1.13919e-05 2700 -0.004956707 -3.619585e-05 -1.636119e-05
35 1 1.502647e-05 2700 -0.004891594 8.628198e-05 -4.843926e-05
36 1 2.346527e-05 2700 -0.004294864 -0.0001376902 -3.976904e-05
37 1 1.546512e-05 2700 -0.004685011 -3.875701e-05 -4.996333e-05
38 1 2.465455e-05 2700 -0.004535702 1.638471e-05 -1.994494e-05
39 1 1.724086e-05 2700 -0.00444178 8.429649e-05 -4.692517e-05
40 1 1.283529e-05 2700 -0.00483465 -0.0001428918 -5.306377e-05
41 1 1.286725e-05 2700 -0.004801295 -4.072411e-05 -5.186065e-05
42 1 1.628605e-05 2700 -0.003337904 -8.052168e-05 -3.130586e-05
43 1 2.589645e-05 2700 -0.0002450359 -0.0001268838 -3.763043e-05
44 1 9.69245e-06 2700 -0.00477117 8.189668e-05 -5.452574e-05
45 1 1.555987e-05 2700 -0.003604992 6.526949e-05 -4.980302e-05
46 1 2.102267e-05 2700 0.0004263555 2.686058e-05 -1.837058e-05
47 1 1.70071e-05 2700 -0.00218 5.145692e-05 -4.697147e-05
48 1 1.450539e-05 2700 0.003069966 5.544158e-05 -5.078695e-05
49 1 1.922879e-05 2700 -0.0009447494 9.999357e-05 -4.219482e-05
50 1 1.403212e-05 2700 -0.003534751 2.88907e-05 -6.370773e-06
51 1 1.393522e-05 2700 -0.0001428686 -0.0001362912 -2.032428e-05
52 1 1.51389e-05 2700 -0.004150418 0.0001266749 -1.36514e-05
53 1 1.59722e-05 2700 -0.003927515 -0.0001212494 -1.852945e-05
54 1 1.665655e-05 2700 -0.004966933 9.668617e-05 2.713951e-06
55 1 1.73104e-05 2700 -0.004770128 -1.598983e-06 -8.756114e-06
56 1 1.452896e-05 2700 -0.004972866 6.510461e-05 -1.338246e-05
57 1 1.261158e-05 2700 -0.004965031 0.0001357897 1.879268e-05
58 1 1.18675e-05 2700 -0.004549075 0.0001425759 -5.405367e-05
59 1 1.748642e-05 2700 -0.004813281 -0.0001152841 -2.217301e-05
60 1 1.649731e-05 2700 -0.004904095 -4.297721e-05 -8.067968e-06
61 1 1.508854e-05 2700 -0.004895011 -2.162193e-05 -5.037747e-05
62 1 1.774829e-05 2700 -0.004576026 1.446677e-05 -6.988933e-06
63 1 1.428452e-05 2700 -0.004198007 5.49828e-05 -1.347166e-05
64 1 1.598214e-05 2700 -0.004236269 8.886261e-05 -4.605607e-05
65 1 5.731774e-06 2700 -0.004609698 0.0001064361 -6.197942e-05
66 1 1.957203e-05 2700 -0.003304991 -2.143613e-05 -4.509761e-05
67 1 1.831237e-05 2700 -0.003110514 1.284354e-05 -4.29528e-05
68 1 1.505262e-05 2700 -0.004425205 3.52852e-05 -4.855325e-05
69 1 1.532576e-05 2700 -0.004145445 -3.483643e-05 -4.885765e-05
70 1 1.391905e-05 2700 -0.004645419 -7.565127e-05 -4.737314e-05
71 1 1.392818e-05 2700 -0.003064486 0.0001168261 -5.162589e-05
72 1 9.270075e-06 2700 -0.004982001 -1.311791e-05 -4.766103e-05
73 1 1.115486e-05 2700 -0.004519288 -1.318e-05 -5.506854e-05
74 1 1.980523e-05 2700 -0.004646484 8.502616e-05 -1.633609e-05
75 1 1.088518e-05 2700 0.002992001 -0.0001422038 -1.73381e-05
76 1 2.10179e-05 2700 -0.003310828 -0.0001296366 -1.707609e-05
77 1 1.546857e-05 2700 -0.004977438 -1.450946e-05 2.258421e-05
78 1 1.821942e-05 2700 -0.004887449 7.459024e-05 1.6456e-05
79 1 1.910163e-05 2700 -0.003179985 -9.835405e-05 -2.074018e-05
80 1 1.541692e-05 2700 -0.004786715 -1.855078e-05 -3.128747e-05
81 1 2.013908e-05 2700 -0.004916638 4.884296e-05 1.102825e-05
82 1 1.112461e-05 2700 -0.004858553 0.0001059193 7.148104e-06
83 1 1.463787e-05 2700 -0.00488155 0.0001141512 -4.780191e-05
84 1 1.562847e-05 2700 -0.004572727 -1.48318e-05 -2.259341e-05
85 1 9.435593e-06 2700 -0.00487457 -6.847761e-05 -5.545463e-05
86 1 8.841953e-06 2700 -0.004821222 -4.672154e-05 -5.796291e-05
87 1 9.830379e-06 2700 -0.004889466 -0.0001376029 -5.233837e-05
88 1 1.338342e-05 2700 -0.004878855 0.0001417753 -5.158535e-05
89 1 7.85304e-06 2700 -0.004765636 -4.414226e-05 -5.792294e-05
90 1 7.357765e-06 2700 -0.00464803 0.0001075691 -5.522751e-05
91 1 1.525709e-05 2700 -0.003955059 7.472347e-06 -4.889823e-05
92 1 1.239302e-05 2700 -0.003252715 0.0001172608 -2.566116e-05
93 1 1.594998e-05 2700 -0.0005212546 2.636886e-05 -2.233802e-05
94 1 1.56859e-05 2700 -0.003149097 8.786733e-05 -4.738233e-05
95 1 1.824996e-05 2700 -0.00314445 -9.354218e-05 -4.414013e-05
96 1 1.542222e-05 2700 -0.004236037 -0.0001468675 -4.759546e-05
97 1 2.663327e-05 2700 -0.004877843 3.269443e-05 3.154323e-05
98 1 1.940339e-05 2700 -0.004833869 0.0001054561 -1.080435e-05
99 1 1.395849e-05 2700 -0.002592522 3.736677e-05 -2.200005e-05
100 1 2.142227e-05 2700 -0.004857875 -7.134862e-05 -9.997835e-06
101 1 1.272904e-05 2700 -0.004949592 -8.039083e-05 -6.322481e-06
102 1 1.856473e-05 2700 -0.004898895 0.0001338045 -2.746145e-05
103 1 1.787281e-05 2700 -0.004925005 -7.341266e-05 -4.708349e-05
104 1 1.08053e-05 2700 -0.004966593 1.462064e-05 -7.835975e-06
105 1 1.573647e-05 2700 -0.004249094 -9.261872e-05 -1.303457e-05
106 1 1.753694e-05 2700 -0.004719176 6.484022e-05 -1.860012e-05
107 1 1.98014e-05 2700 -0.004763072 0.0001100985 -4.393451e-05
108 1 1.813912e-05 2700 -0.004013573 7.02845e-05 -2.175399e-05
109 1 1.479279e-05 2700 -0.003061813 6.022097e-06 -1.869493e-05
110 1 1.598335e-05 2700 -0.003456427 2.64685e-05 -2.705903e-05
111 1 1.609551e-05 2700 -0.003777701 -6.95708e-05 -2.81727e-05
112 1 1.06382e-05 2700 -0.004730002 2.280536e-06 -5.521853e-05
113 1 1.402831e-05 2700 -0.003230015 -4.938569e-05 -5.107674e-05
114 1 2.844648e-05 2700 -0.003724871 1.357262e-05 -3.509957e-05
115 1 1.106147e-05 2700 -0.004685959 -0.0001226044 -5.341579e-05
116 1 9.367984e-06 2700 -0.003215 -0.0001426795 -5.786104e-05
117 1 1.581278e-05 2700 -0.002210631 -9.900184e-05 -4.928595e-05
118 1 1.462354e-05 2700 0.0002873879 -0.0001401195 -3.317977e-05
119 1 1.073736e-05 2700 -0.00460562 1.950392e-05 -9.635161e-06
120 1 1.074685e-05 2700 -0.004944237 -6.884372e-05 -2.603868e-05
121 1 1.763008e-05 2700 -0.003603835 3.105145e-05 -1.149742e-05
122 1 1.661412e-05 2700 -0.004736978 0.0001168828 -1.848905e-05
123 1 1.892363e-05 2700 -0.003733257 -0.0001028031 -2.154417e-05
124 1 1.307726e-05 2700 -0.003753164 4.181561e-05 -2.391685e-05
125 1 1.752266e-05 2700 -0.002797748 9.251022e-06 -1.969457e-05
126 1 1.464321e-05 2700 -0.004044087 -2.220823e-05 -1.81495e-05
127 1 1.805125e-05 2700 -0.004262145 -2.097969e-05 -1.965884e-05
128 1 1.572668e-05 2700 -0.004960219 -0.0001278425 2.109243e-05
129 1 1.939763e-05 2700 -0.004881355 -4.930172e-05 -3.506743e-05
130 1 1.48668e-05 2700 -0.00490652 -2.513164e-05 1.760223e-05
131 1 1.711502e-05 2700 -0.004789787 -9.120955e-05 -1.07237e-05
132 1 2.445691e-05 2700 -0.003273522 -7.752834e-05 -1.150933e-05
133 1 1.485293e-05 2700 -0.004860467 -8.653817e-05 -4.74188e-05
134 1 1.624369e-05 2700 -0.004935286 -1.391162e-05 1.385423e-05
135 1 2.610134e-05 2700 -0.004690372 -8.409902e-05 -9.350883e-06
136 1 1.873072e-05 2700 -0.00411923 0.0001193529 -3.186343e-05
137 1 1.598162e-05 2700 -0.004718239 4.362445e-05 -4.452048e-05
138 1 1.756262e-05 2700 -0.004475002 7.402552e-05 -4.611797e-05
139 1 2.431895e-05 2700 -0.003702786 0.0001202647 -3.67798e-05
140 1 1.417896e-05 2700 -0.004309972 -9.936876e-05 -5.151779e-05
141 1 1.285644e-05 2700 -0.004796263 -7.056138e-05 -5.041879e-05
142 1 1.242274e-05 2700 -0.004442441 -4.51865e-05 -4.998623e-05
143 1 2.005294e-05 2700 -0.004685043 0.0001344759 -4.455994e-05
144 1 1.680061e-05 2700 -0.004071033 -9.525693e-05 -1.859979e-05
145 1 2.391772e-05 2700 0.00362046 -7.488715e-05 -3.307767e-05
146 1 1.153897e-05 2700 -0.00391147 -5.637439e-05 -4.926875e-05
147 1 8.051113e-06 2700 -0.004397362 -1.429982e-05 -5.842397e-05
148 1 2.028634e-05 2700 -0.003079856 -1.069645e-05 -4.369783e-05
149 1 1.242624e-05 2700 -0.004444436 -0.0001079764 -2.389676e-05
150 1 2.247542e-05 2700 0.002906504 -1.521748e-05 -1.865135e-05
151 1 1.015277e-05 2700 -0.004564462 3.598242e-05 -2.046598e-05
152 1 1.612227e-05 2700 0.0002617638 3.805167e-05 -2.217018e-05
153 1 2.257371e-05 2700 -0.004633431 -9.996622e-05 -2.29806e-05
154 1 2.434548e-05 2700 -0.004433588 -1.189408e-05 -1.703885e-05
155 1 1.540061e-05 2700 -0.003648576 1.900772e-05 -1.807272e-05
156 1 1.28957e-05 2700 -0.004390686 -7.033257e-05 -5.150478e-05
157 1 1.627125e-05 2700 -0.004318699 -5.807657e-05 -2.169634e-05
158 1 1.439781e-05 2700 -0.004778614 -5.176921e-05 -4.158836e-05
159 1 2.778893e-05 2700 -0.004808448 -5.038559e-05 -1.184449e-05
160 1 1.764855e-05 2700 -0.004905911 8.089514e-05 -1.362869e-05
161 1 1.630484e-05 2700 -0.004864561 7.054272e-05 -4.759665e-05
162 1 8.410334e-06 2700 -0.004874534 -0.0001042799 -2.317718e-05
163 1 1.929854e-05 2700 -0.004849666 0.0001349769 8.585733e-06
164 1 1.847114e-05 2700 -0.00490832 5.742278e-05 -4.588116e-05
165 1 2.197466e-05 2700 -0.004949385 0.0001217373 -2.242013e-05
166 1 1.758152e-05 2700 -0.00439139 -0.0001165588 -1.819408e-05
167 1 2.388298e-05 2700 -0.002961294 -0.0001211752 -2.903097e-05
168 1 1.679279e-05 2700 -0.004969297 7.374739e-05 -4.326408e-05
169 1 1.146237e-05 2700 -0.004621383 3.260522e-05 -5.367391e-05
170 1 2.133811e-05 2700 -0.003010644 2.666966e-05 -4.026989e-05
171 1 2.187553e-05 2700 -0.004625031 -2.302122e-05 -4.208542e-05
172 1 1.968152e-05 2700 -0.004294994 2.414114e-05 -4.382742e-05
173 1 1.808142e-05 2700 -0.004594714 0.0001169777 -4.676736e-05
174 1 1.236026e-05 2700 -0.004505005 -3.873895e-05 -5.383836e-05
175 1 2.598387e-05 2700 -0.000799969 3.917758e-05 -3.787489e-05
176 1 1.993279e-05 2700 -0.002424928 -9.225965e-05 -4.199871e-05
177 1 1.937725e-05 2700 -0.002861085 6.164656e-05 -4.412718e-05
178 1 1.756368e-05 2700 -0.004936249 -5.332172e-05 -3.782055e-06
179 1 1.600484e-05 2700 -0.003733627 0.0001374534 -1.730955e-05
180 1 1.558379e-05 2700 -0.002179116 -6.914272e-05 -2.915172e-05
181 1 1.179364e-05 2700 -0.003636663 -0.0001281828 -3.287275e-05
182 1 1.452569e-05 2700 -0.004381781 -6.174842e-05 -2.703764e-05
183 1 2.411042e-05 2700 -0.004878739 4.932347e-05 -1.636309e-05
184 1 1.29578e-05 2700 -0.004769821 -0.000117509 -2.633096e-05
185 1 1.227158e-05 2700 -0.002525162 0.000105894 -1.903084e-05
186 1 1.45951e-05 2700 -0.003888444 9.006085e-06 -4.843065e-05
187 1 1.944954e-05 2700 -0.003917312 0.0001205789 -6.681847e-06
188 1 1.367388e-05 2700 -0.004973242 1.892746e-05 3.011698e-05
189 1 1.73146e-05 2700 -0.004939666 7.474359e-05 2.520175e-05
190 1 2.365656e-05 2700 -0.002777608 -9.604348e-05 -1.466192e-05
191 1 1.843066e-05 2700 0.001527221 -8.503886e-05 -3.113927e-05
192 1 1.255536e-05 2700 -0.004617113 8.791897e-05 -3.419175e-05
193 1 6.997511e-06 2700 -0.004955 -8.246456e-05 -5.891599e-05
194 1 2.060281e-05 2700 -0.004108751 1.860278e-05 -2.010691e-05
195 1 1.317577e-05 2700 -0.003752414 -1.695073e-05 -2.866065e-05
196 1 2.420666e-05 2700 -0.003264378 -2.620594e-05 -6.043522e-06
197 1 1.555836e-05 2700 -0.004981738 -5.589807e-05 1.464683e-05
198 1 1.796679e-05 2700 -0.004848325 0.0001005639 -4.489342e-05
199 1 1.577026e-05 2700 -0.004865 1.453699e-05 -4.916188e-05
200 1 2.943279e-05 2700 -0.004660039 0.0001301688 -2.135521e-06
201 1 2.101644e-05 2700 -0.004580453 -7.609556e-05 -1.153476e-05
202 1 1.465238e-05 2700 0.003283998 -1.261645e-05 -2.450057e-05
203 1 1.161909e-05 2700 -0.004791047 8.636593e-05 -4.830697e-05
204 1 1.790629e-05 2700 -0.004581806 0.0001444802 -2.482704e-05
205 1 1.724934e-05 2700 -0.004339995 -0.0001087527 -4.647854e-05
206 1 2.205444e-05 2700 -0.002190978 -0.0001022041 -1.56441e-05
207 1 1.937485e-05 2700 -0.00417619 8.028452e-05 -9.416109e-06
208 1 9.134762e-06 2700 -0.004670001 0.0001084677 -5.819689e-05
209 1 1.532916e-05 2700 -0.001332397 6.090186e-05 -4.865144e-05
210 1 1.779372e-05 2700 -0.0003293904 -0.0001221338 -4.594221e-05
211 1 1.482713e-05 2700 -0.002702622 -4.010731e-05 -4.993049e-05
212 1 1.286466e-05 2700 -0.004097 0.0001080343 -5.124652e-05
213 1 1.042021e-05 2700 -0.004910488 -5.465981e-05 -3.165562e-05
214 1 1.475777e-05 2700 0.001386477 -8.380824e-05 -2.980687e-05
215 1 2.439216e-05 2700 -0.004352492 -8.441858e-05 -1.18323e-05
216 1 2.233379e-05 2700 -0.003026717 -5.720301e-06 -1.580906e-05
217 1 1.866356e-05 2700 -0.004799732 6.288557e-05 -2.981383e-05
218 1 2.159601e-05 2700 -0.004232157 5.869801e-05 -2.381212e-05
219 1 1.817175e-05 2700 -0.004373905 5.441029e-05 -2.209307e-05
220 1 2.159723e-05 2700 -0.004867163 -0.0001425615 -2.074476e-05
221 1 2.181348e-05 2700 -0.004932422 -0.0001077714 5.80465e-06
222 1 1.948996e-05 2700 -0.004976169 7.010608e-05 2.537842e-05
223 1 2.222695e-05 2700 -0.004952456 -7.555758e-05 2.816028e-05
224 1 1.578894e-05 2700 -0.004368065 -1.352426e-05 -4.878464e-05
225 1 1.617805e-05 2700 -0.004962853 0.0001104313 3.223953e-05
226 1 1.741422e-05 2700 -0.003816514 -1.151459e-05 -2.073703e-05
227 1 1.677965e-05 2700 -0.004687211 -2.68341e-05 -2.010463e-05
228 1 2.64414e-05 2700 -0.004578234 8.447107e-05 -2.128413e-05
229 1 1.593389e-05 2700 -0.004850743 0.0001343533 -4.532709e-05
230 1 1.476235e-05 2700 -0.004942749 -9.409044e-05 -2.912898e-05
231 1 1.811065e-05 2700 -0.004542108 5.850707e-05 -2.335148e-05
232 1 2.325908e-05 2700 -0.004159585 5.670198e-05 -4.080484e-05
233 1 1.707489e-05 2700 -0.004714739 8.26711e-05 -4.792052e-05
234 1 2.071171e-05 2700 -0.004161429 0.0001452735 -4.265906e-05
235 1 1.173234e-05 2700 -0.004946421 -3.059581e-05 -4.661824e-05
236 1 1.329148e-05 2700 -0.004498717 9.028743e-06 -2.417796e-05
237 1 5.350182e-06 2700 -0.004865 3.052559e-05 -6.431737e-05
238 1 1.437977e-05 2700 0.001527121 -3.996988e-05 -5.052957e-05
239 1 1.115098e-05 2700 -0.004456958 -6.641842e-05 -5.418628e-05
240 1 8.061054e-06 2700 -0.00356307 3.470241e-05 -5.615156e-05
241 1 1.77877e-05 2700 -0.002611552 2.513715e-05 -4.45114e-05
242 1 1.105337e-05 2700 -0.003875183 -4.463443e-05 -3.239867e-05
243 1 9.129752e-06 2700 -0.004355 -0.0001426795 -5.820136e-05
244 1 1.152722e-05 2700 -0.000745804 -0.0001017375 -2.954423e-05
245 1 1.435046e-05 2700 -0.00207584 -8.871454e-05 -1.524095e-05
246 1 2.823163e-05 2700 -0.004886068 -2.310886e-06 -1.269611e-05
247 1 2.21291e-05 2700 -0.004768784 0.0001486226 -1.724096e-05
248 1 1.147956e-05 2700 -0.004623763 -0.0001495801 -2.285124e-05
249 1 1.794402e-05 2700 -0.003173595 9.50974e-05 -2.551063e-05
250 1 1.484104e-05 2700 -0.003784657 -0.0001486303 -4.745835e-05
251 1 2.259667e-05 2700 -0.004475095 -7.553895e-05 -1.309121e-05
252 1 1.43161e-05 2700 -0.00491174 1.520927e-05 1.667571e-05
253 1 1.407535e-05 2700 -0.003412231 9.758277e-05 -2.896705e-05
254 1 1.181483e-05 2700 -0.004234782 -6.740148e-05 -7.598809e-06
255 1 8.309004e-06 2700 -0.004916783 3.439153e-05 -5.655689e-05
256 1 1.010594e-05 2700 -0.004318602 -8.004421e-05 -7.101711e-06
257 1 1.871472e-05 2700 -0.004952188 -2.492754e-06 4.223176e-05
258 1 2.104712e-05 2700 -0.003149589 -7.432647e-05 -1.026096e-05
259 1 1.879351e-05 2700 -0.004789225 -0.0001009769 -4.524528e-05
260 1 2.346311e-05 2700 -0.002994646 -9.178747e-05 -1.275869e-05
261 1 1.608642e-05 2700 -0.004076988 0.0001278457 -2.691987e-05
262 1 7.823094e-06 2700 -0.004677748 -0.0001373595 -4.496115e-05
263 1 9.24655e-06 2700 -0.004901969 0.000136672 -5.488997e-05
264 1 7.561298e-06 2700 -0.004939992 -4.740558e-05 -6.056321e-05
265 1 6.44369e-06 2700 -0.004915625 -0.0001480921 -5.98302e-05
266 1 1.050365e-05 2700 -0.004860835 -0.0001426868 -5.360672e-05
267 1 1.892758e-05 2700 -0.004426327 -0.0001464771 -1.986874e-05
268 1 1.576165e-05 2700 -0.0008421931 -9.10825e-05 -1.903935e-05
269 1 1.106777e-05 2700 -0.004774999 -2.806071e-05 -5.378059e-05
270 1 2.057681e-05 2700 -0.004648453 5.268997e-05 -4.040393e-05
271 1 1.160552e-05 2700 -0.004987931 -4.981428e-05 -4.859544e-05
272 1 1.34171e-05 2700 -0.00253999 4.973757e-05 -5.096146e-05
273 1 1.000178e-05 2700 -0.003803794 -0.0001278437 -5.108246e-05
274 1 1.858971e-05 2700 -0.0018312 -1.369651e-05 -4.30983e-05
275 1 1.523193e-05 2700 -0.0006143122 0.0001048661 -4.670219e-05
276 1 1.065885e-05 2700 -0.00448062 7.077185e-05 -9.663304e-06
277 1 1.386568e-05 2700 -0.004717968 -9.071584e-05 -3.798286e-05
278 1 1.929722e-05 2700 -0.003090478 5.235745e-05 -1.324045e-06
279 1 1.448939e-05 2700 -0.0037777 9.378334e-05 -1.679359e-05
280 1 1.464613e-05 2700 -0.003865192 -7.192534e-05 -1.771909e-05
281 1 1.756689e-05 2700 -0.004872886 9.027212e-05 -2.138715e-05
282 1 1.876782e-05 2700 -0.001736211 5.326361e-05 5.912925e-06
283 1 1.287021e-05 2700 -0.004785525 2.301911e-05 -1.6981e-05
284 1 1.445183e-05 2700 -0.001113235 -4.273048e-06 -2.060495e-05
285 1 1.559463e-05 2700 -0.004957016 -3.703732e-05 1.62683e-05
286 1 1.906513e-05 2700 -0.004526533 -0.0001147208 -1.79595e-05
287 1 1.17492e-05 2700 -0.002233379 0.0001451121 -2.548772e-05
288 1 1.595083e-05 2700 -0.004934841 9.334075e-05 -1.937611e-06
289 1 1.236477e-05 2700 -0.004712878 0.0001490203 -3.659198e-05
290 1 1.967361e-05 2700 -0.0006933178 -0.0001336583 -1.779144e-05
291 1 1.409105e-05 2700 -0.003707213 0.0001488899 -8.538835e-06
292 1 1.663114e-05 2700 -0.004420365 6.733908e-05 -1.372831e-05
293 1 1.383295e-05 2700 -0.004955837 -0.0001429613 -3.173834e-05
294 1 1.706689e-05 2700 -0.004915313 -7.904316e-05 -1.402767e-05
295 1 1.634135e-05 2700 -0.004236995 0.0001199882 -1.34877e-05
296 1 1.126818e-05 2700 -0.004891676 1.799689e-05 -5.179239e-05
297 1 1.124613e-05 2700 -0.0039177 9.11306e-05 -2.742583e-05
298 1 2.594656e-05 2700 -0.004721505 -5.118341e-05 -3.491146e-05
299 1 1.978386e-05 2700 -0.004596497 -3.859479e-05 -1.151631e-05
300 1 1.165719e-05 2700 -0.004792388 7.675949e-06 -3.483879e-05
301 1 1.764284e-05 2700 -0.004845654 -0.0001156676 -4.493318e-05
302 1 1.988571e-05 2700 -0.003483238 0.0001107679 -9.711718e-06
303 1 1.635981e-05 2700 -0.004048724 -7.677752e-05 -3.472013e-05
304 1 1.257583e-05 2700 -0.003556674 5.946143e-05 -6.361526e-06
305 1 2.734306e-05 2700 -0.003666603 -7.438632e-05 -3.562742e-05
306 1 1.117282e-05 2700 -0.004097734 3.787645e-05 -5.442751e-05
307 1 1.581815e-05 2700 -0.001848676 7.172083e-05 -4.430626e-05
308 1 1.229469e-05 2700 -0.004077773 -0.000148875 -4.311396e-05
309 1 1.457203e-05 2700 -0.003008972 -0.0001030342 -4.613702e-05
310 1 1.343036e-05 2700 -0.003444018 -9.705495e-05 -5.120022e-05
311 1 1.803078e-05 2700 -0.000530012 4.586363e-06 -4.689875e-05
312 1 1.947607e-05 2700 0.003447572 2.928033e-05 -3.062726e-06
313 1 1.376376e-05 2700 -0.004200624 0.0001026611 -9.194873e-06
314 1 1.582206e-05 2700 -0.00462496 3.524189e-05 -1.877591e-05
315 1 1.102167e-05 2700 -0.004963002 -1.679327e-05 -5.376026e-05
316 1 1.952735e-05 2700 -0.003867014 -1.614714e-05 -2.422629e-05
317 1 2.105631e-05 2700 -0.003813597 -8.739788e-05 -1.878218e-05
318 1 1.778409e-05 2700 -0.004785935 0.0001127272 -1.423083e-05
319 1 1.075274e-05 2700 -0.003516137 -0.0001073321 -2.437234e-05
320 1 1.553573e-05 2700 -0.002480006 5.531048e-05 -4.948282e-05
321 1 1.442672e-05 2700 0.002227865 0.0001357464 -2.135376e-05
322 1 1.920236e-05 2700 -0.003816784 4.640861e-05 -1.269778e-05
323 1 1.465358e-05 2700 -0.004382034 -9.160734e-05 -3.631622e-05
324 1 7.929872e-06 2700 -0.004778956 6.586435e-05 -5.655235e-05
325 1 2.027129e-05 2700 -0.004619729 -7.200743e-06 -2.681336e-06
326 1 1.728953e-05 2700 -0.004593047 4.367288e-05 -1.61439e-05
327 1 2.857009e-05 2700 -0.004303893 0.0001048019 -1.915371e-05
328 1 1.415822e-05 2700 -0.003872486 9.582143e-05 -2.265897e-05
329 1 1.005147e-05 2700 -0.004928932 -4.671215e-05 -3.652417e-05
330 1 1.528298e-05 2700 -0.004023316 -9.47498e-05 -2.018396e-05
331 1 2.218759e-05 2700 -0.004513277 -6.607923e-05 -3.446209e-05
332 1 2.314884e-05 2700 -0.004704332 1.01143e-05 -2.988885e-05
333 1 2.338274e-05 2700 -0.003051746 7.044736e-05 -1.503481e-05
334 1 1.141558e-05 2700 -0.004769746 -0.0001457191 -5.341843e-05
335 1 1.868122e-05 2700 -0.004552118 -0.0001179329 -4.551344e-05
336 1 6.349554e-06 2700 -0.004265 -7.339746e-05 -6.25186e-05
337 1 1.228701e-05 2700 -0.004690844 -0.0001152428 -3.177285e-05
338 1 1.768429e-05 2700 -0.002192847 0.0001357135 -4.665055e-05
339 1 1.912131e-05 2700 -0.004368727 0.0001317013 -4.144814e-05
340 1 1.848791e-05 2700 -0.004546513 -1.755318e-05 -4.4218e-05
341 1 1.093014e-05 2700 -0.003444416 -6.728703e-05 -5.415562e-05
342 1 1.461811e-05 2700 -0.004940391 0.0001428366 -5.088008e-05
343 1 1.809127e-05 2700 -0.003165305 -0.0001232855 -4.409413e-05
344 1 1.204492e-05 2700 -0.003335011 0.0001265736 -5.253673e-05
345 1 1.271809e-05 2700 0.002500086 -6.381382e-05 -3.500758e-05
346 1 8.688387e-06 2700 -0.002532186 -0.0001032612 -1.508325e-05
347 1 1.224999e-05 2700 -0.003731054 -3.48265e-05 -2.718573e-05
348 1 2.087362e-05 2700 -0.004338578 6.976558e-05 -1.573818e-05
349 1 2.528975e-05 2700 -0.004903152 -0.0001443871 1.029504e-05
350 1 1.87735e-05 2700 0.0005269888 2.243846e-05 -1.496767e-05
351 1 2.323623e-05 2700 -0.004813081 -8.82076e-05 2.206491e-05
352 1 1.585201e-05 2700 -0.004692673 -0.0001406471 -1.983102e-05
353 1 1.150353e-05 2700 -0.003711379 -7.291528e-05 -3.84946e-05
354 1 1.216761e-05 2700 -0.003420315 1.705383e-05 -2.202928e-05
355 1 1.274923e-05 2700 -0.004022835 3.246548e-06 -2.574017e-05
356 1 1.982055e-05 2700 -0.004440293 0.0001049602 -1.621533e-05
357 1 1.319454e-05 2700 0.001566626 -0.0001011148 -2.414639e-05
358 1 1.679136e-05 2700 -0.004486262 9.496424e-05 -2.133473e-05
359 1 2.311052e-05 2700 -0.003704572 -5.194375e-05 -1.117904e-05
360 1 1.832417e-05 2700 -0.004937343 7.205108e-05 -2.866084e-05
361 1 9.473077e-06 2700 -0.004961885 9.888438e-05 -4.169937e-05
362 1 1.544575e-05 2700 -0.004200572 -0.0001016421 -1.571134e-06
363 1 1.965054e-05 2700 -0.003319583 -8.696698e-06 -1.100572e-05
364 1 1.051171e-05 2700 -0.004910874 9.776183e-05 8.36652e-06
365 1 1.308201e-05 2700 -0.003536622 -9.800586e-05 -1.653985e-05
366 1 1.087635e-05 2700 -0.004294997 -7.813568e-05 -5.430079e-05
367 1 1.259629e-05 2700 -0.004909325 1.966485e-06 -5.221142e-05
368 1 2.938063e-05 2700 -0.003097595 9.51499e-05 -2.339037e-05
369 1 1.348141e-05 2700 -0.0045767 -0.0001245688 -2.587566e-05
370 1 1.531498e-05 2700 -0.004010001 -5.518889e-05 -4.868403e-05
371 1 1.897527e-05 2700 -0.00383001 -0.0001167051 -4.57894e-05
372 1 2.482243e-05 2700 -0.004353404 -0.0001353347 -1.677297e-05
373 1 2.464204e-05 2700 -0.003104191 -0.0001023903 -1.812978e-05
374 1 9.874291e-06 2700 -0.004735431 5.964091e-05 -5.530498e-05
375 1 2.002425e-05 2700 -0.003949969 -0.0001080798 -4.337598e-05
376 1 1.76533e-05 2700 -0.003665082 3.056424e-05 -4.730459e-05
377 1 1.027374e-05 2700 -0.004814289 0.0001454599 -5.23819e-05
378 1 1.697242e-05 2700 -0.003020009 0.0001467667 -4.722728e-05
379 1 1.90247e-05 2700 -0.001059708 -0.0001382729 -4.287217e-05
380 1 4.071806e-06 2700 -0.004385 6.51666e-05 -6.701703e-05
381 1 4.242009e-06 2700 -0.00488 0.0001084679 -6.661857e-05
382 1 1.494458e-05 2700 -0.004172398 4.202691e-05 -7.947872e-06
383 1 1.714819e-05 2700 -0.004091753 0.0001002423 -1.578996e-05
384 1 1.182399e-05 2700 -0.003779518 -4.933852e-05 -9.020793e-06
385 1 1.895531e-05 2700 -0.002026195 0.0001192814 -1.530315e-05
386 1 1.651073e-05 2700 -0.00323717 -6.613715e-05 -2.656725e-05
387 1 2.108211e-05 2700 -0.004225178 -3.682026e-05 -1.499768e-05
388 1 1.988935e-05 2700 -0.00417809 -8.414292e-05 -2.246448e-05
389 1 1.900318e-05 2700 -0.004887114 0.0001141917 2.32491e-06
390 1 2.222616e-05 2700 -0.003740922 9.999513e-05 -1.94347e-05
391 1 1.69034e-05 2700 -0.003538635 4.219047e-06 -2.46215e-05
392 1 1.205984e-05 2700 -0.00370386 -1.864447e-05 -2.243399e-05
393 1 2.146512e-05 2700 -0.004873961 -4.114328e-05 1.581895e-05
394 1 1.877578e-05 2700 -0.002986559 2.283334e-05 -8.433046e-06
395 1 1.155123e-05 2700 -0.00334266 -0.0001147177 -5.047844e-05
396 1 1.934461e-05 2700 -0.003625748 -9.500349e-05 -2.602436e-05
397 1 1.497538e-05 2700 -0.004088305 -1.043351e-05 -2.21434e-05
398 1 1.525406e-05 2700 -0.004211571 -7.377861e-05 -1.997811e-05
399 1 1.208625e-05 2700 -0.004942734 9.621889e-05 -5.114601e-05
400 1 1.19866e-05 2700 -0.004946718 5.600533e-06 -1.438209e-05
401 1 1.355668e-05 2700 -0.004045296 5.329804e-06 -1.221375e-05
402 1 9.662136e-06 2700 -0.004086589 -3.106811e-05 -3.749406e-05
403 1 1.238718e-05 2700 -0.003980779 0.0001393211 -2.120038e-05
404 1 1.585611e-05 2700 -0.002365587 -0.0001181253 -2.217524e-05
405 1 1.534329e-05 2700 -0.001309998 -1.237283e-05 -4.996599e-05
406 1 1.036521e-05 2700 -0.004924966 0.0001425712 -1.852212e-05
407 1 2.450578e-05 2700 -0.003988098 -8.614732e-05 -3.657546e-05
408 1 1.499642e-05 2700 -0.004269834 1.086359e-05 -2.400355e-05
409 1 1.408443e-05 2700 -0.002652831 -9.175657e-05 -1.749452e-05
410 1 2.004365e-05 2700 -0.003680082 -0.0001191538 -4.330489e-05
411 1 2.064771e-05 2700 -0.002644984 -5.714425e-05 -1.612606e-05
412 1 1.686676e-05 2700 -0.004739384 -7.640898e-06 -2.239456e-05
413 1 1.408958e-05 2700 -0.002971297 0.000121971 -2.699796e-05
414 1 1.755484e-05 2700 -0.004740273 -0.0001118617 -3.139356e-05
415 1 1.49388e-05 2700 -0.003617231 -0.0001183051 -4.968152e-05
416 1 1.323056e-05 2700 -0.00442557 -5.064284e-05 -3.145401e-05
417 1 1.903692e-05 2700 -0.004520891 8.861941e-05 -2.8004e-05
418 1 1.874489e-05 2700 -0.004668162 -9.900045e-05 -4.532635e-05
419 1 2.075521e-05 2700 -0.002245662 -4.43635e-05 -2.107605e-05
420 1 1.131974e-05 2700 -0.00471895 -1.914981e-05 -5.377036e-05
421 1 1.257692e-05 2700 -0.004937233 -8.474889e-06 -5.070088e-05
422 1 2.115854e-05 2700 -0.004199529 8.540314e-05 -4.21422e-05
423 1 1.799535e-05 2700 0.002785002 1.32367e-05 -4.693149e-05
424 1 1.601927e-05 2700 0.0009760728 3.954263e-05 -4.650603e-05
425 1 1.825662e-05 2700 0.0001827612 -7.215464e-05 -4.410535e-05
426 1 1.374706e-05 2700 0.0008994747 -9.328497e-05 -5.075845e-05
427 1 1.494211e-05 2700 -0.002986075 -4.970063e-05 -2.13733e-05
428 1 2.09024e-05 2700 -0.00210672 2.56752e-05 -1.105724e-05
429 1 1.778737e-05 2700 -0.004654177 -1.877273e-05 -1.391489e-05
430 1 2.006049e-05 2700 -0.004929829 -2.070364e-05 -2.137678e-05
431 1 1.803571e-05 2700 -0.0009963187 -7.628057e-05 -1.007138e-05
432 1 1.98481e-05 2700 0.0008978258 8.283839e-05 -2.517623e-05
433 1 1.551688e-05 2700 -0.004879734 -0.0001160039 -4.333463e-05
434 1 9.924376e-06 2700 -0.004048406 5.609225e-05 -2.427222e-05
435 1 1.280088e-05 2700 -0.003716033 5.105421e-05 -2.034863e-05
436 1 1.551912e-05 2700 -0.003909002 -7.117053e-05 -2.657491e-05
437 1 1.547758e-05 2700 -0.0003726489 -1.393903e-05 -2.640069e-05
438 1 2.094421e-05 2700 -0.004687084 8.833319e-05 -1.533125e-05
439 1 1.109593e-05 2700 -0.003873435 -2.053049e-05 -5.477861e-05
440 1 2.23263e-05 2700 -0.004909273 -6.610166e-05 2.26702e-05
441 1 2.583672e-05 2700 -0.004919056 -0.0001262797 -3.598538e-05
442 1 1.571722e-05 2700 -0.004453698 -4.578476e-05 -2.421728e-05
443 1 2.258785e-05 2700 -0.002102466 -9.105915e-05 -4.073161e-05
444 1 1.757652e-05 2700 -0.004544098 -4.494498e-05 -2.089696e-05
445 1 1.952968e-05 2700 -0.004944871 2.105831e-05 1.301033e-05
446 1 1.79571e-05 2700 -0.004445028 -0.0001286291 -4.616964e-05
447 1 1.298801e-05 2700 -0.004783714 4.704112e-05 -7.588286e-06
448 1 1.719973e-05 2700 -0.004598582 3.746092e-06 -3.159892e-05
449 1 1.586979e-05 2700 0.004467837 -8.475718e-05 -2.02899e-06
450 1 1.903805e-05 2700 -0.004614173 0.0001223568 -1.565762e-05
451 1 9.174953e-06 2700 -0.004172605 0.0001252569 -2.34866e-05
452 1 1.864709e-05 2700 -0.0032422 1.594373e-05 -3.714585e-05
453 1 8.667284e-06 2700 -0.00408678 -0.0001115125 -3.027095e-05
454 1 1.232104e-05 2700 -0.002945661 2.00489e-05 -2.355638e-05
455 1 2.089507e-05 2700 -0.004759155 -7.846268e-05 -2.923602e-05
456 1 9.463831e-06 2700 -0.004443272 2.764522e-05 -3.385234e-05
457 1 2.072222e-05 2700 -0.004389436 -2.606652e-05 -2.19894e-05
458 1 1.832665e-05 2700 -0.004463411 -9.736929e-05 -4.564489e-05
459 1 2.302094e-05 2700 -0.003905639 -2.346794e-05 -4.046472e-05
460 1 1.784793e-05 2700 -0.004481023 4.652852e-05 -2.464798e-05
461 1 8.836405e-06 2700 -0.0009225411 8.320797e-05 -3.864108e-05
462 1 1.995175e-05 2700 -0.004330167 0.0001373972 -4.358896e-05
463 1 1.647724e-05 2700 -0.003273377 5.675934e-05 -4.489459e-05
464 1 1.947573e-05 2700 -0.002061085 -9.767165e-05 -4.432543e-05
465 1 1.380902e-05 2700 -0.003733881 6.392031e-05 -3.531241e-05
466 1 1.024035e-05 2700 -0.004760343 -6.121559e-05 -5.512645e-05
467 1 1.297172e-05 2700 -0.0009933555 3.14875e-05 -5.238583e-05
468 1 1.756023e-05 2700 -0.003800706 4.955179e-06 -4.720948e-05