ITEM: TIMESTEP
0
ITEM: NUMBER OF ATOMS
1994
ITEM: BOX BOUNDS ff ff ff
0.0000000000000000e+00 1.0000000000000000e+00
0.0000000000000000e+00 1.0000000000000000e+00
0.0000000000000000e+00 1.0000000000000000e+00
ITEM: ATOMS id type mass radius element xs ys zs 
754 1 3.95341e-05 0.021133 C 0.021133 0.021133 0.021133 
634 1 4.65387e-05 0.0223139 C 0.0223139 0.0511669 0.052505 
100 1 4.18627e-05 0.02154 C 0.0536132 0.0530564 0.02154 
161 1 4.4366e-05 0.0219611 C 0.0555844 0.0219611 0.0518969 
1215 1 1.43579e-05 0.0150777 C 0.0563165 0.0150777 0.0150777 
1564 1 1.26391e-05 0.0144503 C 0.0144503 0.0144503 0.0554383 
849 1 6.15144e-07 0.00527589 C 0.00527589 0.0310893 0.0607387 
916 1 2.62522e-05 0.0184371 C 0.0879236 0.0257054 0.0184371 
1695 1 2.49204e-05 0.0181199 C 0.123683 0.0181199 0.0181199 
320 1 1.49428e-05 0.0152797 C 0.108549 0.0323652 0.0442646 
107 1 2.36176e-05 0.0177985 C 0.0810369 0.0524082 0.0543386 
1082 1 7.37369e-06 0.0120744 C 0.0902554 0.0120744 0.0456347 
311 1 1.7097e-06 0.00741783 C 0.103049 0.00741783 0.0286966 
1031 1 1.59014e-06 0.00724072 C 0.0840344 0.0275695 0.0553443 
1088 1 3.08997e-05 0.0194665 C 0.146918 0.0194665 0.0476342 
1400 1 4.13544e-05 0.0214525 C 0.146634 0.0509117 0.0214525 
384 1 1.66433e-06 0.00735163 C 0.129926 0.0394077 0.0419021 
290 1 5.55878e-05 0.0236754 C 0.182547 0.0236754 0.0236754 
1752 1 5.9679e-05 0.0242425 C 0.176006 0.0588567 0.0555439 
1885 1 8.49202e-06 0.0126563 C 0.176624 0.0126563 0.0577852 
1383 1 1.03177e-05 0.0135051 C 0.207834 0.0135051 0.0489644 
476 1 4.77457e-05 0.0225052 C 0.20897 0.0615323 0.0225051 
1316 1 4.42607e-05 0.0219437 C 0.229172 0.0219437 0.0219437 
1494 1 1.17918e-06 0.00655386 C 0.206617 0.00655386 0.0301022 
179 1 3.5594e-06 0.00947174 C 0.226291 0.0172432 0.0621293 
1947 1 4.11322e-05 0.021414 C 0.231932 0.0471877 0.0570864 
486 1 3.07938e-06 0.00902523 C 0.23654 0.00902523 0.0491079 
869 1 4.6089e-05 0.0222418 C 0.294751 0.0222418 0.0222418 
1266 1 5.60798e-05 0.023745 C 0.2616 0.0540779 0.023745 
1001 1 2.45452e-05 0.0180285 C 0.261694 0.0180285 0.0448509 
1659 1 3.92589e-05 0.0210838 C 0.290865 0.0476817 0.057096 
590 1 1.78647e-06 0.00752724 C 0.284954 0.00752724 0.0461936 
334 1 4.19289e-06 0.0100033 C 0.294658 0.0168289 0.0574465 
1399 1 6.45812e-05 0.0248889 C 0.320584 0.0615731 0.0248889 
801 1 3.44035e-06 0.00936493 C 0.325149 0.0128763 0.00936493 
985 1 2.518e-05 0.0181826 C 0.322205 0.0181826 0.0516348 
17 1 5.52035e-05 0.0236207 C 0.352467 0.0250344 0.0236207 
138 1 2.99432e-05 0.0192636 C 0.357369 0.0591152 0.049185 
825 1 5.99362e-06 0.0112685 C 0.330612 0.0460722 0.055978 
690 1 3.15348e-05 0.019599 C 0.376176 0.019599 0.0593457 
158 1 2.41928e-05 0.0179418 C 0.37754 0.0580165 0.0179418 
294 1 5.62353e-06 0.0110316 C 0.384839 0.0474749 0.0439237 
1886 1 8.17616e-06 0.0124974 C 0.40461 0.0576761 0.0525187 
281 1 5.69877e-05 0.0238725 C 0.400938 0.0238725 0.0238725 
1923 1 2.92677e-05 0.0191176 C 0.426883 0.0353638 0.0563394 
95 1 3.27782e-06 0.00921507 C 0.39867 0.0368615 0.0542192 
713 1 4.74355e-05 0.0224563 C 0.447223 0.0224563 0.0224563 
1924 1 3.0138e-05 0.0193052 C 0.469828 0.0574295 0.0193052 
1937 1 4.84548e-05 0.022616 C 0.470135 0.0249041 0.0611934 
891 1 4.54508e-05 0.0221386 C 0.491816 0.0221386 0.0221386 
1327 1 3.58066e-05 0.0204468 C 0.497705 0.0553168 0.048178 
1855 1 1.62733e-05 0.0157204 C 0.528571 0.0157204 0.0157204 
335 1 2.81699e-05 0.0188755 C 0.527181 0.0292984 0.04751 
563 1 1.16174e-05 0.0140499 C 0.50272 0.0556838 0.0140499 
680 1 4.54959e-05 0.022146 C 0.537633 0.0607519 0.0221459 
846 1 1.38844e-06 0.00692065 C 0.514784 0.00692065 0.0313761 
1307 1 7.86934e-07 0.0057273 C 0.505577 0.0057273 0.0399658 
1960 1 1.1903e-05 0.0141641 C 0.554878 0.0298116 0.0141641 
1118 1 1.53979e-05 0.0154332 C 0.560178 0.0154332 0.0394856 
557 1 2.4351e-05 0.0179808 C 0.559547 0.0462202 0.0524572 
812 1 2.54392e-06 0.00846847 C 0.543284 0.00846847 0.0548921 
583 1 5.37531e-07 0.00504396 C 0.549846 0.0254024 0.0540861 
1778 1 1.91319e-05 0.0165916 C 0.582542 0.0165916 0.0165916 
1740 1 3.56527e-05 0.0204174 C 0.579499 0.0532765 0.0204174 
449 1 3.81869e-05 0.0208902 C 0.598585 0.0292032 0.0480311 
871 1 2.89787e-06 0.0088443 C 0.600131 0.0354572 0.0088443 
28 1 9.42777e-07 0.00608285 C 0.606194 0.0550223 0.0462931 
466 1 2.04571e-05 0.0169662 C 0.616427 0.0169662 0.0169662 
732 1 4.84835e-05 0.0226205 C 0.622413 0.0556871 0.0226205 
1645 1 5.60442e-05 0.02374 C 0.65599 0.02374 0.02374 
1197 1 4.82855e-05 0.0225896 C 0.658019 0.0620258 0.0497499 
1939 1 1.7231e-05 0.0160229 C 0.634484 0.0320863 0.0561269 
1193 1 2.05922e-05 0.0170035 C 0.682843 0.0597327 0.0170035 
1683 1 3.82096e-06 0.00969828 C 0.686403 0.0491821 0.0412727 
220 1 1.54108e-06 0.00716549 C 0.631594 0.00716549 0.032974 
492 1 6.41215e-05 0.0248297 C 0.704535 0.0248297 0.0248297 
1467 1 2.08144e-05 0.0170644 C 0.730657 0.0170644 0.056649 
235 1 3.07547e-06 0.00902141 C 0.728078 0.0397529 0.0440373 
419 1 5.97911e-06 0.0112594 C 0.706172 0.053417 0.0467958 
275 1 1.58683e-06 0.0072357 C 0.714316 0.0378113 0.0524705 
608 1 5.42367e-05 0.023482 C 0.752825 0.0243118 0.023482 
1591 1 5.05197e-05 0.0229328 C 0.764248 0.0557549 0.0556563 
427 1 1.91018e-05 0.016583 C 0.766551 0.016583 0.0603203 
180 1 3.82478e-05 0.0209013 C 0.79037 0.0501728 0.0209012 
1922 1 2.57661e-05 0.0183226 C 0.79814 0.0212391 0.0462187 
1182 1 1.38606e-05 0.0149015 C 0.789035 0.0149015 0.0149015 
1045 1 1.25247e-05 0.0144065 C 0.80884 0.0619338 0.0485989 
45 1 2.61421e-05 0.0184113 C 0.821976 0.0184113 0.0184113 
369 1 4.25277e-05 0.0216535 C 0.832333 0.0572044 0.0216535 
657 1 1.43735e-05 0.0150831 C 0.833071 0.0310063 0.0473963 
1296 1 3.64779e-06 0.0095495 C 0.81354 0.0407717 0.0587954 
468 1 1.98185e-06 0.00779221 C 0.838799 0.00779221 0.035465 
423 1 5.15411e-06 0.0107157 C 0.848264 0.0107157 0.0521987 
696 1 5.81923e-05 0.0240395 C 0.863674 0.0240395 0.0240395 
610 1 1.50717e-05 0.0153235 C 0.901057 0.0153235 0.0153235 
1854 1 4.31738e-05 0.0217626 C 0.907443 0.0512837 0.0217626 
467 1 3.1816e-05 0.0196571 C 0.879981 0.0526726 0.0527382 
124 1 2.12685e-05 0.0171876 C 0.889531 0.0171876 0.0554102 
564 1 1.80531e-06 0.00755361 C 0.888959 0.0334838 0.00755361 
154 1 1.1651e-05 0.0140634 C 0.916215 0.0406742 0.0548381 
1343 1 1.47313e-05 0.0152073 C 0.91825 0.0152073 0.0405528 
1722 1 9.55049e-06 0.0131617 C 0.93908 0.0217442 0.058668 
907 1 1.26992e-05 0.0144731 C 0.942696 0.0554196 0.0144731 
272 1 3.74898e-05 0.0207623 C 0.947699 0.0211129 0.0207623 
1677 1 1.74522e-05 0.0160911 C 0.983909 0.0160911 0.0160911 
1747 1 4.35683e-05 0.0218287 C 0.978171 0.0531326 0.0218286 
547 1 2.41951e-05 0.0179424 C 0.982058 0.0243936 0.0490445 
1330 1 2.29263e-05 0.0176231 C 0.982377 0.0580284 0.0607489 
691 1 2.75971e-05 0.0187467 C 0.946538 0.050534 0.0471063 
309 1 4.83589e-06 0.0104905 C 0.957261 0.0104905 0.0485558 
939 1 5.97897e-06 0.0112593 C 0.045357 0.0755264 0.0508354 
1945 1 2.32729e-06 0.00822092 C 0.0572672 0.0857453 0.0623767 
1354 1 6.30069e-05 0.024685 C 0.024685 0.0889732 0.024685 
217 1 1.96352e-06 0.00776812 C 0.0571911 0.121754 0.00776811 
885 1 2.06777e-05 0.017027 C 0.0541069 0.116329 0.035906 
159 1 8.87867e-06 0.0128456 C 0.0591319 0.0980167 0.0128456 
1878 1 2.69062e-06 0.00862822 C 0.0469801 0.0952251 0.0486352 
10 1 5.48985e-06 0.0109435 C 0.0616749 0.10424 0.0599669 
293 1 4.93391e-05 0.0227528 C 0.103973 0.0633936 0.0227527 
1373 1 2.97399e-05 0.0192199 C 0.0719062 0.0849235 0.0391814 
1993 1 1.44893e-06 0.00701971 C 0.0967297 0.0801886 0.0462446 
183 1 3.79652e-05 0.0208497 C 0.0888623 0.11626 0.0208496 
1052 1 1.84717e-05 0.0163986 C 0.112517 0.0970149 0.0422386 
30 1 1.64656e-05 0.015782 C 0.087437 0.110717 0.0570314 
239 1 4.15968e-05 0.0214943 C 0.130783 0.0676331 0.0576958 
981 1 2.46993e-05 0.0180661 C 0.13564 0.088719 0.0180661 
1250 1 1.86076e-05 0.0164387 C 0.125493 0.121658 0.0164387 
735 1 2.33032e-05 0.0177191 C 0.151206 0.0997729 0.0483335 
1054 1 3.85235e-06 0.00972477 C 0.132492 0.119594 0.0515093 
511 1 7.47493e-07 0.00562997 C 0.171282 0.100572 0.060229 
1042 1 1.58017e-06 0.00722557 C 0.173717 0.090147 0.0531119 
1306 1 3.6427e-05 0.0205642 C 0.174142 0.0867956 0.0205642 
242 1 9.12031e-06 0.0129611 C 0.180913 0.107601 0.0459654 
1437 1 7.20764e-07 0.00556205 C 0.186291 0.0920432 0.0544592 
805 1 5.15485e-06 0.0107162 C 0.210486 0.0722818 0.0539028 
1227 1 5.27871e-06 0.0108014 C 0.221014 0.0862212 0.0413389 
1127 1 1.44896e-05 0.0151236 C 0.212796 0.103909 0.0585199 
1262 1 4.92614e-05 0.0227408 C 0.207033 0.11488 0.0227408 
1189 1 7.24158e-06 0.0120019 C 0.198279 0.0876129 0.042411 
1648 1 9.11624e-06 0.0129591 C 0.235671 0.110408 0.0435826 
1808 1 2.61172e-05 0.0184054 C 0.238859 0.0891634 0.0184054 
1273 1 1.16395e-06 0.00652553 C 0.246518 0.123362 0.0532886 
708 1 1.63003e-06 0.00730078 C 0.28937 0.0654142 0.0317539 
1553 1 6.92922e-07 0.00548949 C 0.28029 0.0702657 0.0393433 
633 1 1.48572e-05 0.0152504 C 0.305062 0.0811188 0.0563243 
726 1 7.09891e-06 0.0119225 C 0.261326 0.114339 0.0469914 
1848 1 3.20488e-05 0.0197049 C 0.25297 0.0845385 0.0535036 
991 1 3.00973e-05 0.0192966 C 0.251341 0.124728 0.0192965 
1237 1 6.54379e-05 0.0249985 C 0.28518 0.09672 0.0249985 
770 1 3.15639e-06 0.00909985 C 0.278889 0.107908 0.0565889 
354 1 2.41597e-06 0.00832404 C 0.331754 0.0670313 0.0556875 
730 1 8.46306e-07 0.00586786 C 0.325862 0.084693 0.0555743 
1432 1 4.11368e-06 0.00993987 C 0.338726 0.0814846 0.0469668 
1021 1 9.13102e-06 0.0129661 C 0.321179 0.0974966 0.0129661 
1946 1 2.71946e-05 0.0186551 C 0.324239 0.105865 0.0433062 
208 1 4.62023e-05 0.02226 C 0.356482 0.0920271 0.02226 
844 1 8.67503e-06 0.0127466 C 0.351915 0.0987307 0.0563138 
1770 1 2.54496e-06 0.00846962 C 0.367112 0.0850592 0.050238 
809 1 5.52233e-06 0.0109651 C 0.346852 0.121773 0.0539338 
973 1 5.99549e-05 0.0242798 C 0.427128 0.064612 0.0242798 
860 1 1.00169e-05 0.0133726 C 0.42772 0.0673765 0.0618259 
761 1 3.28005e-05 0.0198578 C 0.376898 0.118482 0.0478967 
1048 1 9.46635e-07 0.00609113 C 0.405631 0.0957707 0.0560034 
1245 1 2.6312e-05 0.0184511 C 0.391962 0.0830386 0.0400853 
531 1 1.79484e-05 0.0162422 C 0.390892 0.108218 0.0162422 
1446 1 4.40067e-06 0.0101658 C 0.42961 0.0969223 0.0359584 
424 1 1.62116e-05 0.0157005 C 0.422669 0.111431 0.0157005 
1290 1 1.1978e-05 0.0141938 C 0.409548 0.110432 0.042543 
1221 1 5.15188e-06 0.0107142 C 0.418848 0.0868297 0.0507335 
240 1 2.49377e-05 0.0181241 C 0.457985 0.0681853 0.0531434 
26 1 1.53449e-05 0.0154155 C 0.437655 0.111207 0.0555957 
606 1 5.99058e-05 0.0242732 C 0.461099 0.104536 0.0242732 
1840 1 2.69517e-06 0.00863309 C 0.442794 0.0893401 0.0470075 
1709 1 7.01596e-07 0.0055123 C 0.456262 0.0916294 0.0506776 
951 1 1.87538e-06 0.00765009 C 0.469222 0.110115 0.0546374 
1150 1 4.95246e-06 0.0105741 C 0.479943 0.0785592 0.0378522 
1701 1 6.8035e-06 0.0117548 C 0.481687 0.0954121 0.0523959 
921 1 1.69856e-05 0.0159465 C 0.495472 0.118262 0.0449657 
252 1 5.22267e-06 0.010763 C 0.520872 0.0761093 0.0459413 
914 1 3.77366e-06 0.00965809 C 0.53833 0.0682508 0.0530454 
463 1 7.91515e-06 0.012363 C 0.557729 0.0757772 0.0458367 
1972 1 5.95261e-07 0.00521843 C 0.531571 0.080968 0.0567731 
1206 1 9.82336e-06 0.0132859 C 0.508418 0.0945369 0.056103 
1533 1 3.07483e-05 0.0194347 C 0.538037 0.100854 0.043715 
982 1 4.22732e-05 0.0216102 C 0.505053 0.0904551 0.0216102 
771 1 3.90092e-06 0.00976546 C 0.536345 0.104323 0.00976546 
1870 1 1.19175e-05 0.0141699 C 0.554774 0.121586 0.0141699 
1862 1 5.44482e-07 0.00506561 C 0.562395 0.100496 0.041098 
313 1 2.21122e-06 0.00808192 C 0.62133 0.0653365 0.051747 
787 1 1.46863e-06 0.00705139 C 0.578709 0.114589 0.0483319 
1091 1 5.90187e-06 0.0112107 C 0.564497 0.116097 0.0369626 
24 1 4.59166e-05 0.022214 C 0.595841 0.0812964 0.0480808 
1439 1 2.97936e-05 0.0192314 C 0.566149 0.0905915 0.0192314 
431 1 5.73637e-05 0.0239249 C 0.596813 0.120595 0.0239249 
94 1 1.68353e-06 0.00737979 C 0.576984 0.102732 0.0402877 
777 1 2.14995e-06 0.00800657 C 0.622102 0.0953766 0.053118 
1468 1 1.27051e-05 0.0144754 C 0.65431 0.0727853 0.0144754 
1429 1 5.58032e-07 0.00510729 C 0.653359 0.103301 0.0433654 
816 1 1.2395e-06 0.00666377 C 0.642729 0.105539 0.038831 
46 1 5.84218e-06 0.0111728 C 0.630288 0.080565 0.0440927 
1527 1 1.35051e-06 0.00685704 C 0.654985 0.0938743 0.0361796 
1502 1 7.74022e-06 0.0122712 C 0.626055 0.112975 0.0438506 
1445 1 7.61197e-06 0.0122031 C 0.673643 0.0899822 0.036154 
2 1 7.47693e-06 0.0121305 C 0.676859 0.087826 0.0121305 
346 1 2.69555e-05 0.0186003 C 0.631041 0.0959274 0.0186003 
1283 1 5.17011e-05 0.0231102 C 0.683714 0.121215 0.0231102 
459 1 1.38034e-05 0.014881 C 0.659045 0.12403 0.0518651 
965 1 4.68799e-06 0.0103824 C 0.658432 0.10064 0.0103824 
1921 1 3.42694e-06 0.00935275 C 0.654509 0.108012 0.0282639 
1900 1 1.362e-06 0.00687643 C 0.664695 0.10619 0.0407659 
1589 1 1.23419e-06 0.00665424 C 0.648175 0.0830104 0.0319187 
1890 1 1.68004e-06 0.00737468 C 0.681231 0.10367 0.0479166 
418 1 1.08701e-06 0.00637845 C 0.642546 0.0926081 0.0405218 
938 1 1.63853e-06 0.00731344 C 0.681137 0.080891 0.0517134 
1952 1 4.71943e-06 0.0104056 C 0.690212 0.0642922 0.0566144 
1278 1 6.05645e-05 0.0243618 C 0.730491 0.0666135 0.0243618 
247 1 5.37435e-06 0.0108662 C 0.715441 0.0795527 0.0534664 
126 1 1.09422e-05 0.0137723 C 0.696593 0.077911 0.0376832 
350 1 1.13023e-05 0.0139217 C 0.702683 0.090766 0.0139217 
148 1 5.56222e-05 0.0236803 C 0.730038 0.114649 0.0236802 
1638 1 1.56783e-05 0.0155264 C 0.703967 0.103149 0.0506098 
603 1 8.22715e-07 0.00581282 C 0.759006 0.11802 0.0280774 
249 1 5.5251e-05 0.0236275 C 0.771401 0.0916895 0.0236274 
864 1 6.24184e-06 0.011422 C 0.801678 0.0789312 0.011422 
16 1 5.66843e-06 0.0110609 C 0.789651 0.0786132 0.0500704 
1420 1 2.31174e-05 0.0176719 C 0.799752 0.124833 0.0176719 
315 1 2.17138e-05 0.0173068 C 0.781972 0.120601 0.0506092 
1760 1 1.66782e-05 0.0158497 C 0.872855 0.066777 0.0158497 
1914 1 3.69828e-05 0.0206683 C 0.813606 0.0946037 0.0367577 
833 1 3.65611e-06 0.00955675 C 0.821914 0.0842478 0.00955675 
137 1 1.20486e-05 0.0142216 C 0.844928 0.0899633 0.0142216 
1789 1 1.56222e-06 0.00719811 C 0.83472 0.110246 0.0460347 
518 1 5.45653e-05 0.0235293 C 0.854406 0.0874671 0.0521803 
1038 1 2.71572e-05 0.0186466 C 0.874835 0.102859 0.0186465 
1210 1 1.01813e-05 0.0134454 C 0.919645 0.0679406 0.0502804 
1285 1 2.70082e-06 0.00863911 C 0.900521 0.0702556 0.0610811 
237 1 2.0143e-05 0.0168789 C 0.895804 0.0834423 0.0397496 
545 1 2.7318e-05 0.0186833 C 0.887599 0.112915 0.0578808 
502 1 7.47738e-06 0.0121307 C 0.916002 0.101399 0.0546909 
1991 1 5.43525e-07 0.00506264 C 0.901225 0.0934765 0.0584944 
1364 1 5.89664e-05 0.0241456 C 0.932881 0.0914961 0.0241456 
682 1 3.99723e-06 0.00984517 C 0.959512 0.0759481 0.00984517 
639 1 2.47375e-06 0.00838989 C 0.948741 0.0964956 0.0521105 
1556 1 3.21176e-06 0.00915275 C 0.944757 0.0779187 0.0521348 
692 1 7.10063e-06 0.0119235 C 0.968654 0.107688 0.0583838 
857 1 1.92572e-05 0.0166278 C 0.968173 0.0836439 0.0429945 
1574 1 2.10269e-06 0.00794747 C 0.960924 0.0938212 0.00794747 
592 1 6.2374e-05 0.0246021 C 0.975398 0.11983 0.024602 
42 1 6.85758e-06 0.0117858 C 0.985383 0.0850916 0.0117858 
1023 1 4.79934e-05 0.022544 C 0.022544 0.136105 0.022544 
1891 1 3.00786e-06 0.00895481 C 0.0415033 0.135751 0.0476954 
1903 1 2.90838e-06 0.00885498 C 0.00885498 0.146374 0.04887 
1790 1 1.88533e-06 0.0076636 C 0.0552852 0.131042 0.055699 
532 1 5.26652e-07 0.0050097 C 0.026044 0.15194 0.0448195 
1314 1 2.38053e-05 0.0178455 C 0.0463741 0.162101 0.0472316 
955 1 1.37014e-05 0.0148443 C 0.0148443 0.167827 0.0407738 
719 1 7.95262e-06 0.0123825 C 0.0123825 0.167938 0.0123825 
1027 1 5.38325e-06 0.0108722 C 0.0266611 0.177292 0.061561 
1507 1 2.77012e-05 0.0187702 C 0.0632342 0.146404 0.0187702 
53 1 2.17733e-05 0.0173226 C 0.077458 0.141815 0.0516232 
112 1 9.16974e-06 0.0129844 C 0.112768 0.126395 0.0425414 
1347 1 2.96769e-06 0.00891477 C 0.113288 0.144895 0.0542486 
1913 1 3.24191e-06 0.0091813 C 0.0644678 0.180765 0.0546274 
1180 1 3.03335e-06 0.00898004 C 0.0688866 0.164591 0.0616049 
851 1 9.89564e-07 0.00618185 C 0.11413 0.159968 0.0542135 
632 1 6.32687e-05 0.0247192 C 0.105 0.1587 0.0247191 
243 1 3.70831e-05 0.0206869 C 0.0935578 0.184748 0.0601069 
958 1 5.29877e-06 0.0108151 C 0.13532 0.146449 0.0108151 
1774 1 1.62624e-05 0.0157169 C 0.13635 0.144046 0.0456373 
942 1 3.04163e-06 0.00898819 C 0.151967 0.126152 0.0524364 
1646 1 9.23854e-07 0.00604187 C 0.157753 0.141251 0.0483793 
1824 1 5.02246e-05 0.0228881 C 0.163608 0.128888 0.0228881 
720 1 7.26151e-06 0.0120129 C 0.17109 0.153301 0.04668 
1268 1 1.36916e-06 0.00688846 C 0.177905 0.126995 0.0489388 
1408 1 6.14346e-05 0.0244779 C 0.151535 0.174662 0.0244779 
1438 1 9.06273e-06 0.0129337 C 0.125785 0.174895 0.0516162 
115 1 1.02959e-06 0.00626409 C 0.141866 0.164412 0.0518004 
1736 1 2.2067e-06 0.00807641 C 0.171213 0.17305 0.0503623 
134 1 2.8594e-06 0.00880498 C 0.189353 0.133864 0.0406894 
996 1 1.30144e-05 0.0145919 C 0.226796 0.141096 0.0405145 
450 1 3.19778e-06 0.00913945 C 0.229092 0.139237 0.00913945 
1933 1 5.9656e-06 0.0112509 C 0.207812 0.129318 0.0535041 
368 1 9.76695e-06 0.0132604 C 0.192751 0.147983 0.0585646 
1406 1 6.6253e-06 0.0116512 C 0.228905 0.125686 0.0616517 
1111 1 1.96791e-06 0.0077739 C 0.21714 0.144389 0.0604179 
555 1 6.14999e-06 0.0113657 C 0.217995 0.162041 0.05307 
291 1 2.26586e-06 0.00814794 C 0.22468 0.172094 0.0377395 
1179 1 5.76762e-05 0.0239682 C 0.198001 0.160691 0.0239682 
62 1 1.54005e-06 0.00716389 C 0.221473 0.181877 0.0490732 
495 1 1.21912e-06 0.00662703 C 0.233197 0.161106 0.0434914 
510 1 1.64878e-05 0.0157891 C 0.245733 0.179209 0.0507735 
1113 1 3.02617e-05 0.0193316 C 0.24261 0.162356 0.0193316 
1827 1 2.59966e-05 0.0183771 C 0.278498 0.150823 0.0183771 
215 1 2.13971e-05 0.0172222 C 0.292163 0.129761 0.0503383 
1116 1 3.22275e-05 0.0197415 C 0.259106 0.146291 0.0508987 
1277 1 2.99537e-05 0.0192658 C 0.311146 0.132107 0.0192658 
528 1 3.00462e-05 0.0192856 C 0.291524 0.167451 0.0558433 
1209 1 8.49307e-07 0.00587479 C 0.294356 0.167781 0.00587478 
669 1 3.80988e-05 0.0208741 C 0.351163 0.134809 0.0208741 
1597 1 3.28112e-05 0.0198599 C 0.326068 0.144526 0.0532355 
1508 1 5.39454e-06 0.0108798 C 0.370799 0.150082 0.0406101 
776 1 3.94818e-06 0.00980474 C 0.355619 0.140325 0.0507221 
1301 1 1.53735e-06 0.0071597 C 0.37102 0.143135 0.057257 
1101 1 7.97323e-06 0.0123932 C 0.345303 0.168877 0.0444432 
1970 1 5.11934e-05 0.0230343 C 0.317501 0.173757 0.0230343 
1130 1 3.38754e-05 0.0200724 C 0.366388 0.172815 0.0200724 
84 1 3.44899e-06 0.00937277 C 0.360344 0.158159 0.0559603 
174 1 9.76425e-07 0.00615437 C 0.344346 0.182353 0.0306106 
97 1 2.80217e-06 0.00874585 C 0.364166 0.175298 0.0514998 
1787 1 8.29445e-07 0.00582863 C 0.345773 0.159522 0.0600729 
1241 1 6.51712e-07 0.00537843 C 0.381649 0.138709 0.0622205 
749 1 3.50195e-06 0.0094205 C 0.398378 0.136344 0.0566587 
792 1 4.54431e-06 0.0102753 C 0.417492 0.133497 0.052855 
58 1 6.16505e-05 0.0245066 C 0.402106 0.146512 0.0245066 
1720 1 4.06215e-06 0.00989819 C 0.432781 0.150468 0.0395745 
1865 1 5.28024e-06 0.0108024 C 0.42884 0.126762 0.0364193 
540 1 4.7195e-06 0.0104056 C 0.43511 0.142881 0.0582631 
133 1 3.00553e-06 0.0089525 C 0.385787 0.149364 0.053577 
1351 1 8.37108e-06 0.0125959 C 0.38436 0.169897 0.0471963 
523 1 4.54453e-05 0.0221378 C 0.41672 0.174253 0.0590397 
622 1 1.49579e-05 0.0152848 C 0.440258 0.136936 0.0152848 
613 1 9.45398e-06 0.0131172 C 0.450339 0.135756 0.0418116 
1028 1 5.87605e-05 0.0241175 C 0.48033 0.148941 0.0241175 
731 1 4.4784e-06 0.0102253 C 0.470846 0.126888 0.0486766 
1905 1 1.48852e-06 0.00708308 C 0.466368 0.143375 0.0514588 
987 1 2.07982e-05 0.01706 C 0.453865 0.164025 0.0518242 
229 1 3.14682e-05 0.0195852 C 0.438116 0.171473 0.0195852 
834 1 9.32902e-07 0.00606153 C 0.456848 0.179673 0.0350654 
218 1 5.78218e-05 0.0239884 C 0.489428 0.184179 0.0555773 
1175 1 1.83342e-05 0.0163578 C 0.511451 0.150735 0.0506482 
1171 1 3.92438e-05 0.0210811 C 0.521236 0.129957 0.0210811 
842 1 8.77744e-06 0.0127966 C 0.542868 0.132549 0.0470243 
238 1 2.35542e-05 0.0177825 C 0.552188 0.153228 0.0177825 
1030 1 4.22707e-05 0.0216098 C 0.518368 0.174197 0.0216098 
1365 1 2.91472e-05 0.0190913 C 0.545379 0.167169 0.0512335 
1270 1 1.74296e-05 0.0160842 C 0.569987 0.142118 0.0443662 
962 1 2.27575e-05 0.0175797 C 0.614147 0.149269 0.0484185 
888 1 4.50247e-05 0.0220692 C 0.589694 0.165996 0.0220692 
1066 1 4.01688e-06 0.00986128 C 0.571886 0.177538 0.0459274 
1056 1 1.55771e-05 0.0154929 C 0.610245 0.18227 0.0489715 
1852 1 1.73933e-06 0.00746044 C 0.631254 0.131039 0.0498487 
248 1 4.50794e-05 0.0220782 C 0.640337 0.135376 0.0220782 
216 1 1.60579e-06 0.0072644 C 0.665331 0.139479 0.00726439 
1476 1 1.56908e-05 0.0155305 C 0.686181 0.150299 0.0484305 
1284 1 4.03151e-06 0.00987324 C 0.641169 0.146164 0.0521419 
1122 1 8.39967e-07 0.00585317 C 0.66562 0.142055 0.0318938 
1555 1 2.77102e-05 0.0187723 C 0.673089 0.161509 0.0187723 
1644 1 3.06952e-05 0.0194235 C 0.65524 0.171831 0.0509246 
457 1 3.46064e-05 0.0202157 C 0.630613 0.176495 0.0202157 
434 1 1.27331e-05 0.014486 C 0.743692 0.134733 0.053123 
407 1 8.99287e-06 0.0129004 C 0.70818 0.13234 0.0470768 
1669 1 3.72216e-06 0.00961396 C 0.723313 0.147578 0.0538385 
571 1 1.91868e-06 0.00770853 C 0.689613 0.184076 0.00770853 
1915 1 3.18831e-05 0.0196709 C 0.695098 0.186168 0.0517784 
1318 1 5.63902e-05 0.0237887 C 0.715318 0.159777 0.0237887 
751 1 3.62225e-05 0.0205256 C 0.744443 0.169641 0.0556983 
683 1 2.58168e-06 0.00851016 C 0.706834 0.160743 0.0549385 
1829 1 5.60479e-05 0.0237405 C 0.765061 0.146619 0.0237405 
1312 1 7.42192e-06 0.0121007 C 0.770052 0.149715 0.0590971 
636 1 8.77985e-06 0.0127977 C 0.792313 0.148751 0.0479855 
711 1 3.38867e-05 0.0200746 C 0.782481 0.180059 0.0460581 
1466 1 8.57879e-06 0.0126993 C 0.784176 0.17876 0.0126993 
472 1 4.49091e-06 0.0102349 C 0.806672 0.164819 0.0561181 
1239 1 1.88732e-05 0.0165165 C 0.814526 0.129657 0.0491312 
391 1 4.36689e-05 0.0218455 C 0.841088 0.125006 0.0218454 
509 1 1.93149e-05 0.0166444 C 0.853976 0.142515 0.0536069 
1477 1 7.67521e-06 0.0122368 C 0.871899 0.128194 0.0360618 
1162 1 8.50498e-06 0.0126628 C 0.82718 0.154691 0.0571707 
1481 1 5.48506e-05 0.0235702 C 0.815503 0.16249 0.0235702 
377 1 8.72692e-06 0.012772 C 0.844301 0.168862 0.0448025 
781 1 4.56698e-05 0.0221741 C 0.869257 0.159567 0.0221741 
992 1 5.85306e-05 0.024086 C 0.906025 0.131559 0.024086 
553 1 8.05292e-06 0.0124343 C 0.887636 0.149807 0.049827 
573 1 3.10073e-05 0.0194891 C 0.917073 0.161529 0.0537266 
1863 1 2.98396e-05 0.0192413 C 0.909156 0.177281 0.0192413 
342 1 4.42898e-05 0.0219485 C 0.940108 0.125487 0.054428 
181 1 5.58262e-06 0.0110048 C 0.978078 0.153095 0.0110048 
1522 1 2.74547e-06 0.00868646 C 0.949708 0.154575 0.053937 
245 1 3.83635e-05 0.0209223 C 0.979078 0.156798 0.0509135 
1384 1 4.96071e-05 0.0227939 C 0.945606 0.156647 0.0227939 
2000 1 3.79539e-05 0.0208476 C 0.948824 0.186392 0.0545659 
892 1 3.80935e-06 0.00968845 C 0.990312 0.185265 0.0515577 
1499 1 4.93669e-05 0.022757 C 0.022757 0.199868 0.022757 
1352 1 7.36617e-06 0.0120703 C 0.0510613 0.218531 0.0307262 
934 1 1.45039e-05 0.0151286 C 0.0444073 0.194439 0.0533693 
1931 1 1.08844e-05 0.013748 C 0.0439083 0.223259 0.0551047 
1338 1 8.37218e-06 0.0125965 C 0.0125965 0.195332 0.0563138 
328 1 1.5988e-06 0.00725384 C 0.0621157 0.217262 0.0465254 
758 1 1.51218e-05 0.0153405 C 0.0153405 0.225386 0.0500558 
1252 1 2.29292e-06 0.00818026 C 0.027719 0.208738 0.0611378 
456 1 3.15694e-05 0.0196062 C 0.0196062 0.241996 0.0196061 
435 1 1.23861e-05 0.0143532 C 0.0478652 0.245313 0.0381444 
1112 1 2.74919e-06 0.00869038 C 0.0300762 0.244177 0.0527481 
1918 1 5.22974e-05 0.0231987 C 0.067171 0.188072 0.0231987 
1784 1 3.8561e-06 0.00972792 C 0.0682689 0.202682 0.0526861 
890 1 3.88552e-05 0.0210113 C 0.0895197 0.221698 0.0412096 
1099 1 2.55106e-05 0.0182618 C 0.113391 0.200356 0.0182618 
935 1 7.94382e-06 0.0123779 C 0.104634 0.229123 0.0123779 
302 1 1.72614e-05 0.0160323 C 0.0667949 0.236595 0.0160323 
421 1 2.17653e-05 0.0173204 C 0.114609 0.246369 0.0564137 
1503 1 3.6646e-05 0.0206053 C 0.126859 0.208343 0.0538353 
11 1 1.10043e-05 0.0137983 C 0.160025 0.199297 0.0525149 
1469 1 5.51853e-05 0.0236181 C 0.178074 0.214764 0.0236181 
473 1 1.94219e-05 0.0166751 C 0.159208 0.22956 0.0560018 
922 1 5.42738e-05 0.0234873 C 0.137409 0.23854 0.0234873 
1414 1 1.80738e-06 0.0075565 C 0.177006 0.244934 0.0501698 
1297 1 4.99749e-05 0.0228501 C 0.194853 0.190577 0.0598692 
588 1 6.38888e-05 0.0247996 C 0.22487 0.202393 0.0247996 
977 1 1.52143e-06 0.0071349 C 0.249877 0.201335 0.0446316 
1519 1 5.53661e-05 0.0236439 C 0.207265 0.237795 0.0527928 
1018 1 2.5172e-05 0.0181807 C 0.229743 0.244581 0.0181807 
675 1 6.42106e-05 0.0248412 C 0.273667 0.193281 0.0248412 
850 1 1.05433e-05 0.0136028 C 0.283476 0.208393 0.0588022 
1219 1 2.74186e-06 0.00868265 C 0.30106 0.190937 0.044023 
357 1 3.09559e-05 0.0194783 C 0.30799 0.217694 0.0386305 
870 1 6.04553e-05 0.0243472 C 0.255064 0.231933 0.0499215 
288 1 2.34279e-05 0.0177507 C 0.282102 0.234423 0.0177507 
397 1 4.56231e-05 0.0221666 C 0.345325 0.209368 0.0221666 
297 1 2.78617e-05 0.0188064 C 0.331193 0.193587 0.0572384 
1634 1 3.17345e-05 0.0196403 C 0.374637 0.201677 0.0509673 
157 1 2.64127e-05 0.0184746 C 0.353013 0.232874 0.0544166 
82 1 3.1672e-05 0.0196274 C 0.323135 0.248333 0.0196274 
392 1 6.42952e-06 0.0115353 C 0.324566 0.241331 0.0499596 
1213 1 4.36428e-05 0.0218411 C 0.402943 0.193243 0.0218411 
1965 1 6.15759e-05 0.0244967 C 0.417488 0.220793 0.0561792 
1616 1 5.8693e-05 0.0241083 C 0.383827 0.234965 0.0241082 
222 1 7.33261e-06 0.0120519 C 0.444775 0.192866 0.0419222 
957 1 2.88372e-05 0.0190234 C 0.438763 0.212995 0.0190234 
794 1 2.67544e-05 0.0185539 C 0.470087 0.192243 0.0185539 
1620 1 3.68416e-05 0.0206419 C 0.462226 0.21918 0.0504012 
1024 1 4.00111e-06 0.00984837 C 0.492034 0.22318 0.0554178 
79 1 2.26802e-05 0.0175598 C 0.46649 0.238223 0.0175598 
1836 1 5.88203e-05 0.0241257 C 0.504004 0.217545 0.0241257 
1078 1 1.84912e-05 0.0164044 C 0.5272 0.197652 0.0507504 
110 1 1.81181e-06 0.00756267 C 0.534141 0.217304 0.0339148 
1267 1 6.91087e-07 0.00548464 C 0.521008 0.218509 0.0483473 
35 1 6.80857e-07 0.00545744 C 0.531191 0.218971 0.053497 
426 1 7.14398e-07 0.00554562 C 0.548306 0.191631 0.0510891 
479 1 5.70335e-05 0.0238789 C 0.557201 0.198434 0.0238788 
1107 1 4.26259e-06 0.0100584 C 0.544757 0.222647 0.0469252 
788 1 4.1119e-06 0.00993843 C 0.557838 0.210232 0.0555647 
301 1 2.41878e-05 0.0179406 C 0.524572 0.241366 0.0520377 
960 1 6.33169e-07 0.00532693 C 0.547432 0.237044 0.0516435 
1602 1 2.96804e-05 0.019207 C 0.541691 0.238359 0.019207 
1249 1 1.79937e-05 0.0162559 C 0.582701 0.199572 0.0548511 
1846 1 4.8841e-05 0.0226759 C 0.60256 0.208848 0.0226759 
187 1 2.06524e-05 0.01702 C 0.610728 0.22024 0.0598146 
1757 1 4.6821e-05 0.0223589 C 0.574263 0.23592 0.0449134 
1348 1 4.58811e-06 0.0103082 C 0.605102 0.245241 0.0503223 
163 1 1.52391e-05 0.01538 C 0.633436 0.20276 0.0440745 
1661 1 1.93139e-05 0.0166441 C 0.636105 0.228455 0.0166441 
1472 1 5.576e-05 0.0236998 C 0.666781 0.20322 0.0236998 
966 1 2.55807e-06 0.00848414 C 0.639382 0.223574 0.0541197 
755 1 8.30899e-07 0.00583203 C 0.681179 0.22829 0.0475208 
190 1 1.76692e-05 0.0161576 C 0.660176 0.234789 0.0471167 
1806 1 1.20504e-05 0.0142223 C 0.628326 0.240594 0.0439366 
1202 1 3.92663e-06 0.00978687 C 0.690213 0.216083 0.0438694 
1763 1 5.22555e-05 0.0231925 C 0.737543 0.229672 0.0231925 
1821 1 2.14616e-05 0.0172395 C 0.707029 0.199422 0.0172395 
818 1 1.51124e-05 0.0153373 C 0.726686 0.198588 0.0432039 
323 1 4.74899e-06 0.0104273 C 0.7096 0.217228 0.0382586 
1084 1 2.14759e-06 0.00800364 C 0.744357 0.212861 0.0485727 
671 1 1.22879e-06 0.0066445 C 0.746444 0.22705 0.0515501 
336 1 1.25295e-06 0.00668777 C 0.721906 0.224024 0.04802 
1120 1 1.11722e-06 0.006437 C 0.700922 0.227301 0.0486338 
1044 1 5.98501e-05 0.0242657 C 0.692266 0.243851 0.0242656 
172 1 1.0259e-06 0.00625661 C 0.714776 0.232728 0.0416197 
899 1 3.55888e-05 0.0204052 C 0.752406 0.188781 0.0204052 
1376 1 2.3972e-05 0.017887 C 0.769766 0.215797 0.0445634 
1876 1 4.20989e-05 0.0215805 C 0.800952 0.208252 0.0215804 
1654 1 1.33386e-05 0.0147121 C 0.799953 0.216861 0.056823 
963 1 7.04793e-06 0.0118939 C 0.755936 0.242898 0.0499856 
173 1 3.22365e-06 0.00916403 C 0.781628 0.237682 0.0551518 
52 1 3.83794e-06 0.00971262 C 0.799712 0.240452 0.0505025 
1377 1 1.97272e-05 0.016762 C 0.817152 0.190923 0.0521277 
989 1 5.88243e-05 0.0241262 C 0.845719 0.19939 0.0241262 
1070 1 4.77953e-06 0.0104496 C 0.838693 0.230887 0.0104496 
1191 1 4.67277e-05 0.0223441 C 0.8314 0.237362 0.0467671 
394 1 1.16219e-05 0.0140517 C 0.815644 0.239829 0.0140517 
945 1 4.48743e-05 0.0220446 C 0.868195 0.239667 0.0220446 
412 1 6.42255e-05 0.0248431 C 0.884592 0.191689 0.0528935 
432 1 2.73189e-05 0.0186835 C 0.899653 0.213991 0.0186835 
964 1 2.8912e-05 0.0190398 C 0.921356 0.215286 0.0570555 
1657 1 5.78725e-06 0.0111377 C 0.880741 0.22736 0.0501908 
1889 1 1.0701e-06 0.0063452 C 0.886802 0.241613 0.0583001 
1291 1 1.60098e-06 0.00725714 C 0.879654 0.246924 0.0480183 
1948 1 5.29608e-06 0.0108132 C 0.906388 0.245239 0.0108132 
577 1 2.35233e-05 0.0177747 C 0.903237 0.242838 0.0406883 
1586 1 9.31893e-06 0.0130545 C 0.935161 0.244243 0.0580058 
826 1 4.04631e-05 0.0212972 C 0.939394 0.210485 0.0212972 
185 1 4.70019e-05 0.0223877 C 0.977612 0.189354 0.0223877 
554 1 3.48235e-05 0.0202579 C 0.979742 0.21318 0.0585843 
522 1 3.66801e-06 0.00956711 C 0.949495 0.215832 0.0621744 
271 1 8.88755e-06 0.0128498 C 0.953073 0.230348 0.0454707 
265 1 4.3442e-05 0.0218076 C 0.978192 0.233541 0.0218075 
221 1 5.94206e-06 0.0112361 C 0.988764 0.242578 0.0517821 
54 1 6.12113e-07 0.00526721 C 0.00526721 0.261572 0.0250725 
1565 1 5.62599e-05 0.0237704 C 0.0282502 0.27631 0.0485267 