LAMMPS data file via write_data, version 5 May 2020, timestep = 10000000

1994 atoms
1 atom types

0.0000000000000000e+00 1.0000000000000000e+00 xlo xhi
0.0000000000000000e+00 1.0000000000000000e+00 ylo yhi
0.0000000000000000e+00 1.0000000000000000e+00 zlo zhi

Atoms # sphere

754 1 4.2266004622106446e-02 9.9999999999999978e-01 2.1133000528009430e-02 2.1132997710023454e-02 2.1132982946807023e-02 0 0 0
634 1 4.4627756976814828e-02 1.0000000000000000e+00 2.2313874823124927e-02 5.1166869396229157e-02 5.2504987674314302e-02 0 0 0
100 1 4.3080055952575080e-02 9.9999999999999978e-01 5.3613224112171634e-02 5.3056360644019362e-02 2.1540001348417215e-02 0 0 0
161 1 4.3922184125484057e-02 1.0000000000000000e+00 5.5584352845266194e-02 2.1961075089383671e-02 5.1896941521899956e-02 0 0 0
1215 1 3.0155342174766279e-02 1.0000000000000000e+00 5.6316502410627807e-02 1.5077669892404156e-02 1.5077666968076858e-02 0 0 0
1564 1 2.8900554691860713e-02 1.0000000000000000e+00 1.4450276321350512e-02 1.4450276147686708e-02 5.5438258571803262e-02 0 0 0
939 1 2.2518660338837031e-02 1.0000000000000000e+00 4.5357007505415436e-02 7.5526400987522099e-02 5.0835440440794827e-02 0 0 0
1138 1 2.3088132521644295e-02 1.0000000000000000e+00 2.9940414748828387e-02 2.5457980583833657e-02 7.3174997441215348e-02 0 0 0
849 1 1.0551785137761284e-02 1.0000000000000002e+00 5.2758922725783123e-03 3.1089313327092000e-02 6.0738719747347028e-02 0 0 0
916 1 3.6874194083211104e-02 1.0000000000000000e+00 8.7923554683583149e-02 2.5705370448305929e-02 1.8437087075546334e-02 0 0 0
1695 1 3.6239790071844954e-02 1.0000000000000000e+00 1.2368349821646703e-01 1.8119894166066394e-02 1.8119884662323605e-02 0 0 0
320 1 3.0559356129057406e-02 9.9999999999999989e-01 1.0854892186252026e-01 3.2365182624875491e-02 4.4264629785266990e-02 0 0 0
293 1 4.5505522059046441e-02 1.0000000000000000e+00 1.0397272621281507e-01 6.3393610363698394e-02 2.2752740226557776e-02 0 0 0
239 1 4.2988649771077865e-02 1.0000000000000000e+00 1.3078347410533750e-01 6.7633101463601325e-02 5.7695763143066209e-02 0 0 0
107 1 3.5596926876156093e-02 9.9999999999999989e-01 8.1036884114634805e-02 5.2408219851357955e-02 5.4338649584142418e-02 0 0 0
1088 1 3.8933048448028529e-02 1.0000000000000000e+00 1.4691770073447560e-01 1.9466518920805382e-02 4.7634239153425940e-02 0 0 0
1400 1 4.2904963862572316e-02 1.0000000000000000e+00 1.4663416952186176e-01 5.0911684207597264e-02 2.1452457271068079e-02 0 0 0
1082 1 2.4148787788184727e-02 1.0000000000000000e+00 9.0255426990781595e-02 1.2074391780203331e-02 4.5634692168496679e-02 0 0 0
311 1 1.4835653772966775e-02 1.0000000000000002e+00 1.0304920339695310e-01 7.4178262676637477e-03 2.8696596737930714e-02 0 0 0
1031 1 1.4481442051232533e-02 1.0000000000000000e+00 8.4034446426523191e-02 2.7569458380147332e-02 5.5344272439138587e-02 0 0 0
384 1 1.4703269826575775e-02 1.0000000000000000e+00 1.2992641254728204e-01 3.9407736273233039e-02 4.1902081840804177e-02 0 0 0
290 1 4.7350770066189936e-02 1.0000000000000000e+00 1.8254749041477941e-01 2.3675379088446361e-02 2.3675363064012325e-02 0 0 0
1383 1 2.7010218080603620e-02 9.9999999999999978e-01 2.0783422741672050e-01 1.3505107896202500e-02 4.8964401920033727e-02 0 0 0
476 1 4.5010301170409800e-02 1.0000000000000000e+00 2.0896956508847114e-01 6.1532294743768819e-02 2.2505131131117614e-02 0 0 0
1752 1 4.8485025818685544e-02 1.0000000000000002e+00 1.7600560432790158e-01 5.8856662270748969e-02 5.5543926877893952e-02 0 0 0
1885 1 2.5312640431948304e-02 1.0000000000000000e+00 1.7662385388779550e-01 1.2656319490057123e-02 5.7785237105525439e-02 0 0 0
1316 1 4.3887389951333115e-02 9.9999999999999989e-01 2.2917171338419293e-01 2.1943691493528518e-02 2.1943676941471413e-02 0 0 0
1494 1 1.3107719702230637e-02 1.0000000000000000e+00 2.0661730394519057e-01 6.5538592003038139e-03 3.0102247546091913e-02 0 0 0
179 1 1.8943472601912672e-02 9.9999999999999989e-01 2.2629089413429282e-01 1.7243168584139854e-02 6.2129269989806536e-02 0 0 0
805 1 2.1432475192208065e-02 1.0000000000000000e+00 2.1048575683169893e-01 7.2281764888991767e-02 5.3902752322330112e-02 0 0 0
1947 1 4.2827989139048381e-02 1.0000000000000000e+00 2.3193177557506670e-01 4.7187749303839836e-02 5.7086365293496394e-02 0 0 0
486 1 1.8050458155595913e-02 1.0000000000000002e+00 2.3654011964774221e-01 9.0252279781398125e-03 4.9107882542684285e-02 0 0 0
869 1 4.4483575278186971e-02 1.0000000000000000e+00 2.9475120639160490e-01 2.2241777620089786e-02 2.2241766918890762e-02 0 0 0
1266 1 4.7490054405056895e-02 1.0000000000000002e+00 2.6160021110340481e-01 5.4077895875193085e-02 2.3744999950000005e-02 0 0 0
1001 1 3.6056999334160705e-02 1.0000000000000000e+00 2.6169411461014835e-01 1.8028494687455723e-02 4.4850897141169681e-02 0 0 0
1659 1 4.2167687133032684e-02 1.0000000000000000e+00 2.9086500488590999e-01 4.7681725716203847e-02 5.7095982677425480e-02 0 0 0
590 1 1.5054487923651230e-02 9.9999999999999989e-01 2.8495388270388272e-01 7.5272418307365434e-03 4.6193594254616881e-02 0 0 0
334 1 2.0006524831990957e-02 1.0000000000000002e+00 2.9465797314169911e-01 1.6828871485367679e-02 5.7446545807171720e-02 0 0 0
708 1 1.4601553382632115e-02 1.0000000000000000e+00 2.8937045056691502e-01 6.5414245570113883e-02 3.1753924119539548e-02 0 0 0
1553 1 1.0978979114898937e-02 1.0000000000000000e+00 2.8028992873000819e-01 7.0265689683340432e-02 3.9343293111488487e-02 0 0 0
22 1 1.1034731772278776e-02 1.0000000000000000e+00 3.0440018117704704e-01 2.6210746026543573e-02 6.5059673474562221e-02 0 0 0
1399 1 4.9777817353502764e-02 1.0000000000000002e+00 3.2058411588466623e-01 6.1573131370286298e-02 2.4888887389282535e-02 0 0 0
801 1 1.8729864232581977e-02 1.0000000000000002e+00 3.2514907595894837e-01 1.2876292993945122e-02 9.3649312562037214e-03 0 0 0
985 1 3.6365155459551678e-02 1.0000000000000000e+00 3.2220488016870763e-01 1.8182575516065676e-02 5.1634752927847256e-02 0 0 0
17 1 4.7241390904989744e-02 1.0000000000000000e+00 3.5246667677366006e-01 2.5034445191053911e-02 2.3620671330564495e-02 0 0 0
690 1 3.9198003145492641e-02 1.0000000000000002e+00 3.7617574959653571e-01 1.9598998320585748e-02 5.9345695998198666e-02 0 0 0
158 1 3.5883570679409227e-02 9.9999999999999989e-01 3.7754021161124868e-01 5.8016505186105384e-02 1.7941769281816629e-02 0 0 0
138 1 3.8527115950606351e-02 1.0000000000000002e+00 3.5736861852953367e-01 5.9115191489802439e-02 4.9184957779291813e-02 0 0 0
825 1 2.2537040716287232e-02 1.0000000000000000e+00 3.3061150399983369e-01 4.6072215823498013e-02 5.5977996079911156e-02 0 0 0
354 1 1.6648086089011322e-02 1.0000000000000002e+00 3.3175359970440488e-01 6.7031257062401720e-02 5.5687452640478585e-02 0 0 0
294 1 2.2063284894480967e-02 1.0000000000000000e+00 3.8483901148773397e-01 4.7474916101418248e-02 4.3923720654705428e-02 0 0 0
1886 1 2.4994836326220463e-02 1.0000000000000000e+00 4.0461029065715093e-01 5.7676132742230775e-02 5.2518663063441405e-02 0 0 0
281 1 4.7744949291341453e-02 1.0000000000000000e+00 4.0093773521502662e-01 2.3872472593530845e-02 2.3872458518367893e-02 0 0 0
713 1 4.4912624077365092e-02 1.0000000000000000e+00 4.4722320998318488e-01 2.2456305422816340e-02 2.2456288368441654e-02 0 0 0
1923 1 3.8235195627545564e-02 1.0000000000000000e+00 4.2688316989933706e-01 3.5363839864865500e-02 5.6339436461967284e-02 0 0 0
973 1 4.8559639583602376e-02 1.0000000000000000e+00 4.2712751005436328e-01 6.4612011867706765e-02 2.4279798022393689e-02 0 0 0
240 1 3.6248158526722418e-02 9.9999999999999989e-01 4.5798546929379602e-01 6.8185286331882602e-02 5.3143419151996087e-02 0 0 0
860 1 2.6745167624552348e-02 1.0000000000000000e+00 4.2771997566212511e-01 6.7376498413322466e-02 6.1825902434170500e-02 0 0 0
95 1 1.8430144436857730e-02 9.9999999999999989e-01 3.9866966645908486e-01 3.6861493790092230e-02 5.4219235925647924e-02 0 0 0
1924 1 3.8610467011393264e-02 1.0000000000000000e+00 4.6982788585068569e-01 5.7429520455459834e-02 1.9305220022157153e-02 0 0 0
1937 1 4.5232022774979480e-02 1.0000000000000000e+00 4.7013517039846003e-01 2.4904088568266081e-02 6.1193403706845777e-02 0 0 0
891 1 4.4277271420824001e-02 1.0000000000000000e+00 4.9181589409061499e-01 2.2138625443046525e-02 2.2138617689822677e-02 0 0 0
1855 1 3.1440739455372436e-02 1.0000000000000000e+00 5.2857070560095265e-01 1.5720366618765202e-02 1.5720358201508713e-02 0 0 0
335 1 3.7751058893162319e-02 1.0000000000000002e+00 5.2718075894360517e-01 2.9298408480520143e-02 4.7509986821447123e-02 0 0 0
563 1 2.8099802219355388e-02 9.9999999999999989e-01 5.0272011482071954e-01 5.5683821312907548e-02 1.4049891166409201e-02 0 0 0
1327 1 4.0893562953403947e-02 1.0000000000000000e+00 4.9770461379696151e-01 5.5316755316614084e-02 4.8178046474212269e-02 0 0 0
680 1 4.4291923136586288e-02 1.0000000000000002e+00 5.3763298397744075e-01 6.0751893593999552e-02 2.2145949799735540e-02 0 0 0
252 1 2.1526070335659231e-02 1.0000000000000000e+00 5.2087184509932460e-01 7.6109268974973054e-02 4.5941268913045688e-02 0 0 0
846 1 1.3841291444302206e-02 1.0000000000000000e+00 5.1478379115488471e-01 6.9206453982178012e-03 3.1376074557495297e-02 0 0 0
1307 1 1.1454600506208185e-02 1.0000000000000000e+00 5.0557709597583456e-01 5.7273001359040348e-03 3.9965790809885673e-02 0 0 0
914 1 1.9316178974377075e-02 1.0000000000000000e+00 5.3833031753894800e-01 6.8250828243608258e-02 5.3045420891289961e-02 0 0 0
1960 1 2.8328215581517768e-02 1.0000000000000000e+00 5.5487846633859783e-01 2.9811559374121027e-02 1.4164098499342238e-02 0 0 0
1778 1 3.3183296370871036e-02 1.0000000000000000e+00 5.8254174983223095e-01 1.6591639438381586e-02 1.6591639143814844e-02 0 0 0
1740 1 4.0834880913996549e-02 1.0000000000000000e+00 5.7949912147049210e-01 5.3276484281632189e-02 2.0417419984729606e-02 0 0 0
1118 1 3.0866486085982289e-02 1.0000000000000000e+00 5.6017840477259884e-01 1.5433239590191432e-02 3.9485579216761123e-02 0 0 0
449 1 4.1780330404536950e-02 1.0000000000000000e+00 5.9858526630677833e-01 2.9203225035792459e-02 4.8031096422461166e-02 0 0 0
871 1 1.7688597109023759e-02 1.0000000000000002e+00 6.0013055964976214e-01 3.5457177381589940e-02 8.8442978300445566e-03 0 0 0
557 1 3.5961648945678791e-02 9.9999999999999989e-01 5.5954691205717522e-01 4.6220235660818731e-02 5.2457161389597218e-02 0 0 0
1593 1 2.4340182419093411e-02 1.0000000000000000e+00 5.7445527767559590e-01 1.2170090417401804e-02 6.2883586168834743e-02 0 0 0
812 1 1.6936949066322739e-02 1.0000000000000000e+00 5.4328394323922546e-01 8.4684737362882116e-03 5.4892112823436402e-02 0 0 0
463 1 2.4725980299863025e-02 1.0000000000000000e+00 5.5772919232347473e-01 7.5777169084955590e-02 4.5836690781812746e-02 0 0 0
28 1 1.2165691723192899e-02 1.0000000000000000e+00 6.0619427899176181e-01 5.5022318346943364e-02 4.6293092766772140e-02 0 0 0
583 1 1.0087920203845911e-02 1.0000000000000000e+00 5.4984610749528984e-01 2.5402414635842845e-02 5.4086093750818257e-02 0 0 0
313 1 1.6163830741384919e-02 1.0000000000000002e+00 6.2132998514445326e-01 6.5336482464089116e-02 5.1746972826231183e-02 0 0 0
466 1 3.3932425688920742e-02 1.0000000000000000e+00 6.1642715469681253e-01 1.6966211183678078e-02 1.6966203798996136e-02 0 0 0
732 1 4.5240964980442527e-02 1.0000000000000000e+00 6.2241296771141452e-01 5.5687081335368926e-02 2.2620465837133303e-02 0 0 0
1645 1 4.7480007651019847e-02 1.0000000000000000e+00 6.5599011358590753e-01 2.3739997507493484e-02 2.3739979600543935e-02 0 0 0
1197 1 4.5179295388599529e-02 1.0000000000000000e+00 6.5801872042267828e-01 6.2025827793726875e-02 4.9749904772818744e-02 0 0 0
1939 1 3.2045755247606784e-02 1.0000000000000000e+00 6.3448399134540212e-01 3.2086265346074637e-02 5.6126904928314569e-02 0 0 0
1193 1 3.4006961148235461e-02 1.0000000000000000e+00 6.8284328170999242e-01 5.9732697892236765e-02 1.7003472158657301e-02 0 0 0
191 1 4.2571361135957470e-02 1.0000000000000002e+00 6.7844504509958803e-01 2.1285679792824998e-02 6.2689486004267700e-02 0 0 0
1683 1 1.9396561183685698e-02 1.0000000000000002e+00 6.8640331879541516e-01 4.9182090504892924e-02 4.1272687686636583e-02 0 0 0
1468 1 2.8950744335982364e-02 1.0000000000000000e+00 6.5430985175911305e-01 7.2785280819481615e-02 1.4475359421473794e-02 0 0 0
220 1 1.4330980593492734e-02 1.0000000000000000e+00 6.3159405304901928e-01 7.1654899473868857e-03 3.2974018571318639e-02 0 0 0
1952 1 2.0811191299376634e-02 1.0000000000000000e+00 6.9021231702859009e-01 6.4292208315606891e-02 5.6614442997311297e-02 0 0 0
492 1 4.9659429527660566e-02 1.0000000000000002e+00 7.0453537274674094e-01 2.4829700081130949e-02 2.4829693370192283e-02 0 0 0
1467 1 3.4128882505059653e-02 1.0000000000000000e+00 7.3065719383410377e-01 1.7064438036775466e-02 5.6649047525514792e-02 0 0 0
1278 1 4.8723664059640681e-02 1.0000000000000000e+00 7.3049117765217764e-01 6.6613480766812297e-02 2.4361808856441673e-02 0 0 0
608 1 4.6963970585243764e-02 1.0000000000000000e+00 7.5282549046142955e-01 2.4311766287651259e-02 2.3481965524355511e-02 0 0 0
235 1 1.8042821086963090e-02 9.9999999999999989e-01 7.2807821620942870e-01 3.9752859172718764e-02 4.4037308938032010e-02 0 0 0
1591 1 4.5865626295965918e-02 9.9999999999999989e-01 7.6424803116596784e-01 5.5754861361992071e-02 5.5656345863438039e-02 0 0 0
427 1 3.3165922715871557e-02 1.0000000000000002e+00 7.6655144318177737e-01 1.6582957975517065e-02 6.0320306422524457e-02 0 0 0
419 1 2.2518836507815325e-02 1.0000000000000000e+00 7.0617160182283378e-01 5.3417049837241895e-02 4.6795840814761895e-02 0 0 0
275 1 1.4471404852565100e-02 1.0000000000000000e+00 7.1431575716759776e-01 3.7811265610871662e-02 5.2470496481112842e-02 0 0 0
45 1 3.6822574765804493e-02 1.0000000000000000e+00 8.2197582525512636e-01 1.8411286305808041e-02 1.8411275491931545e-02 0 0 0
180 1 4.1802526764479715e-02 1.0000000000000000e+00 7.9036983926177584e-01 5.0172779354001704e-02 2.0901247395049973e-02 0 0 0
1922 1 3.6645186071584554e-02 9.9999999999999989e-01 7.9814040659965724e-01 2.1239149466285565e-02 4.6218715070294562e-02 0 0 0
1182 1 2.9803075799626801e-02 1.0000000000000000e+00 7.8903485558654474e-01 1.4901528521082627e-02 1.4901529525564887e-02 0 0 0
1045 1 2.8813081969885659e-02 1.0000000000000000e+00 8.0884031417329616e-01 6.1933806927003947e-02 4.8598913425549513e-02 0 0 0
369 1 4.3306971133363889e-02 9.9999999999999978e-01 8.3233288685542850e-01 5.7204368774714832e-02 2.1653472441124911e-02 0 0 0
657 1 3.0166234010907931e-02 1.0000000000000000e+00 8.3307136825127071e-01 3.1006268495632375e-02 4.7396277141088440e-02 0 0 0
1296 1 1.9098993991082065e-02 1.0000000000000000e+00 8.1354034168319089e-01 4.0771742364209849e-02 5.8795407043889192e-02 0 0 0
468 1 1.5584421495713490e-02 1.0000000000000000e+00 8.3879924552464402e-01 7.7922103154699938e-03 3.5465044647889195e-02 0 0 0
423 1 2.1431454984206452e-02 1.0000000000000002e+00 8.4826384450807546e-01 1.0715726195662049e-02 5.2198660317774134e-02 0 0 0
610 1 3.0647017257589393e-02 1.0000000000000000e+00 9.0105703099861556e-01 1.5323503574991791e-02 1.5323499313082087e-02 0 0 0
696 1 4.8079033046066311e-02 1.0000000000000000e+00 8.6367374643016803e-01 2.4039514733836705e-02 2.4039497072813533e-02 0 0 0
1854 1 4.3525176361913415e-02 1.0000000000000000e+00 9.0744301182009290e-01 5.1283701816391192e-02 2.1762567947234246e-02 0 0 0
1760 1 3.1699332884372836e-02 1.0000000000000000e+00 8.7285506498087895e-01 6.6776956533059331e-02 1.5849662272638218e-02 0 0 0
467 1 3.9314170456172047e-02 1.0000000000000002e+00 8.7998087881595766e-01 5.2672600351770453e-02 5.2738217577699219e-02 0 0 0
124 1 3.4375241056259366e-02 1.0000000000000000e+00 8.8953116941132915e-01 1.7187613908790915e-02 5.5410210521658107e-02 0 0 0
564 1 1.5107223989957582e-02 1.0000000000000000e+00 8.8895904536285009e-01 3.3483817975417093e-02 7.5536115436504207e-03 0 0 0
154 1 2.8126859021432166e-02 1.0000000000000000e+00 9.1621497846352740e-01 4.0674166036425763e-02 5.4838143757786312e-02 0 0 0
1343 1 3.0414537182270798e-02 1.0000000000000000e+00 9.1824989883934116e-01 1.5207265774283754e-02 4.0552843705306020e-02 0 0 0
1210 1 2.6890706669953982e-02 9.9999999999999978e-01 9.1964478708219088e-01 6.7940576021232199e-02 5.0280356850456918e-02 0 0 0
1285 1 1.7278213578871552e-02 1.0000000000000000e+00 9.0052130439743228e-01 7.0255584828719672e-02 6.1081120970213683e-02 0 0 0
1722 1 2.6323418047429725e-02 1.0000000000000000e+00 9.3908032403241459e-01 2.1744216277121749e-02 5.8668042076227542e-02 0 0 0
907 1 2.8946282518536915e-02 1.0000000000000002e+00 9.4269618198881300e-01 5.5419600534749702e-02 1.4473128752278202e-02 0 0 0
272 1 4.1524549439328047e-02 1.0000000000000002e+00 9.4769924525874283e-01 2.1112886819584339e-02 2.0762259517857776e-02 0 0 0
1677 1 3.2182281511920638e-02 1.0000000000000000e+00 9.8390886365875319e-01 1.6091136609786776e-02 1.6091131257908769e-02 0 0 0
1747 1 4.3657334276315449e-02 1.0000000000000000e+00 9.7817134213677992e-01 5.3132645274697805e-02 2.1828645940187720e-02 0 0 0
547 1 3.5884743475301538e-02 1.0000000000000000e+00 9.8205763114288447e-01 2.4393614372747341e-02 4.9044453019221244e-02 0 0 0
1330 1 3.5246163488014674e-02 1.0000000000000000e+00 9.8237691917662917e-01 5.8028407731182820e-02 6.0748880998846684e-02 0 0 0
691 1 3.7493395799535041e-02 1.0000000000000000e+00 9.4653835910169570e-01 5.0533986782122862e-02 4.7106329861573523e-02 0 0 0
309 1 2.0980990310656370e-02 1.0000000000000000e+00 9.5726061048806688e-01 1.0490492679968115e-02 4.8555792781280444e-02 0 0 0
1274 1 1.9440827765241652e-02 1.0000000000000002e+00 9.6644544476080052e-01 9.7204135504840080e-03 6.6542638373579169e-02 0 0 0
1772 1 2.3280021330937754e-02 9.9999999999999989e-01 9.5996834863814084e-01 3.2073165703661248e-02 6.7160892041968845e-02 0 0 0
682 1 1.9690347486031403e-02 1.0000000000000000e+00 9.5951209058172793e-01 7.5948061838398515e-02 9.8451727437090710e-03 0 0 0
1945 1 1.6441849659402784e-02 1.0000000000000000e+00 5.7267199767066151e-02 8.5745339817545216e-02 6.2376711098376003e-02 0 0 0
1373 1 3.8439740533213945e-02 1.0000000000000000e+00 7.1906190210187751e-02 8.4923531271954927e-02 3.9181414056251307e-02 0 0 0
1354 1 4.9370013139848602e-02 1.0000000000000002e+00 2.4684997989409617e-02 8.8973208978761473e-02 2.4684978737605886e-02 0 0 0
1023 1 4.5087992732919753e-02 1.0000000000000002e+00 2.2543994200131218e-02 1.3610505113460056e-01 2.2543976650592299e-02 0 0 0
1416 1 4.4503906962696418e-02 1.0000000000000000e+00 2.2251950049930823e-02 1.1633814752434141e-01 6.2741750976238575e-02 0 0 0
217 1 1.5536230376705635e-02 9.9999999999999989e-01 5.7191093091373921e-02 1.2175432836938976e-01 7.7681146974725281e-03 0 0 0
1507 1 3.7540476800659896e-02 9.9999999999999989e-01 6.3234245080829504e-02 1.4640365409580944e-01 1.8770223342041332e-02 0 0 0
885 1 3.4053955573613737e-02 9.9999999999999978e-01 5.4106905141493626e-02 1.1632880510251613e-01 3.5906026007261026e-02 0 0 0
159 1 2.5691125828628952e-02 1.0000000000000002e+00 5.9131868415838951e-02 9.8016703475777331e-02 1.2845556722289014e-02 0 0 0
1878 1 1.7256442386310755e-02 1.0000000000000000e+00 4.6980100457176543e-02 9.5225111393682033e-02 4.8635203031796623e-02 0 0 0
1891 1 1.7909611988770596e-02 1.0000000000000000e+00 4.1503339737195125e-02 1.3575081655259158e-01 4.7695362432300069e-02 0 0 0
1903 1 1.7709963772310860e-02 9.9999999999999989e-01 8.8549814864988079e-03 1.4637375873725977e-01 4.8870016285883125e-02 0 0 0
10 1 2.1887052679381826e-02 1.0000000000000000e+00 6.1674934390214931e-02 1.0423969109722740e-01 5.9966933945376388e-02 0 0 0
1790 1 1.5327191765106838e-02 1.0000000000000000e+00 5.5285193901121139e-02 1.3104189833388913e-01 5.5698977628991543e-02 0 0 0
532 1 1.0019396990546676e-02 1.0000000000000000e+00 2.6044023177276731e-02 1.5194042462013066e-01 4.4819452757897497e-02 0 0 0
1993 1 1.4039424007776857e-02 1.0000000000000000e+00 9.6729718480027024e-02 8.0188600256548961e-02 4.6244595922479016e-02 0 0 0
53 1 3.4645113025161024e-02 1.0000000000000000e+00 7.7458024447546930e-02 1.4181508184791716e-01 5.1623207834704581e-02 0 0 0
183 1 4.1699307724693470e-02 9.9999999999999978e-01 8.8862318150936329e-02 1.1626043285856714e-01 2.0849629860102678e-02 0 0 0
958 1 2.1630118289790171e-02 1.0000000000000002e+00 1.3531971277948240e-01 1.4644866547621518e-01 1.0815054724616000e-02 0 0 0
981 1 3.6132295497754728e-02 1.0000000000000002e+00 1.3564043316939264e-01 8.8718991003686964e-02 1.8066133542141562e-02 0 0 0
1250 1 3.2877360946907366e-02 1.0000000000000002e+00 1.2549332310798095e-01 1.2165788001891255e-01 1.6438674410332473e-02 0 0 0
1052 1 3.2797170534169848e-02 1.0000000000000000e+00 1.1251717050332934e-01 9.7014926004838645e-02 4.2238630629621403e-02 0 0 0
735 1 3.5438253351225635e-02 9.9999999999999989e-01 1.5120583897140777e-01 9.9772949507914696e-02 4.8333504835312069e-02 0 0 0
30 1 3.1564062732068854e-02 1.0000000000000000e+00 8.7436951527693943e-02 1.1071707299716151e-01 5.7031389614467742e-02 0 0 0
112 1 2.5968854583785339e-02 1.0000000000000000e+00 1.1276833590679440e-01 1.2639530519074541e-01 4.2541369748795840e-02 0 0 0
1774 1 3.1433707504269534e-02 9.9999999999999978e-01 1.3634959277026337e-01 1.4404640598536270e-01 4.5637297188383004e-02 0 0 0
1054 1 1.9449534346093207e-02 1.0000000000000000e+00 1.3249210932846092e-01 1.1959409645278665e-01 5.1509299728257199e-02 0 0 0
1347 1 1.7829530633906614e-02 9.9999999999999989e-01 1.1328788673478828e-01 1.4489520534042927e-01 5.4248563350597474e-02 0 0 0
942 1 1.7976388506580326e-02 1.0000000000000000e+00 1.5196721303140506e-01 1.2615224486941576e-01 5.2436437884858599e-02 0 0 0
511 1 1.1259940155437189e-02 1.0000000000000000e+00 1.7128164398215068e-01 1.0057201606844977e-01 6.0229044358241383e-02 0 0 0
1646 1 1.2083744035141423e-02 1.0000000000000000e+00 1.5775309605537138e-01 1.4125113816873203e-01 4.8379315810434177e-02 0 0 0
1042 1 1.4451138714538486e-02 1.0000000000000000e+00 1.7371687316801124e-01 9.0147027094519619e-02 5.3111871019847309e-02 0 0 0
134 1 1.7609967779186539e-02 1.0000000000000000e+00 1.8935294640843714e-01 1.3386385800940576e-01 4.0689369930655424e-02 0 0 0
1227 1 2.1602777527460260e-02 1.0000000000000000e+00 2.2101431203127531e-01 8.6221156313424488e-02 4.1338870663015316e-02 0 0 0
1824 1 4.5776167044311838e-02 1.0000000000000000e+00 1.6360803502270532e-01 1.2888755809542551e-01 2.2888064532660398e-02 0 0 0
1127 1 3.0247266786288130e-02 1.0000000000000002e+00 2.1279570730976893e-01 1.0390877100041852e-01 5.8519925790707729e-02 0 0 0
1306 1 4.1128362394463436e-02 9.9999999999999978e-01 1.7414188783947676e-01 8.6795557712192398e-02 2.0564162075325916e-02 0 0 0
1262 1 4.5481645257902166e-02 9.9999999999999989e-01 2.0703339986316954e-01 1.1487996109634235e-01 2.2740801759469614e-02 0 0 0
996 1 2.9183793654285275e-02 1.0000000000000000e+00 2.2679586852950409e-01 1.4109581514972366e-01 4.0514530130135132e-02 0 0 0
450 1 1.8278894763569763e-02 1.0000000000000002e+00 2.2909247206045386e-01 1.3923689595324024e-01 9.1394465823401768e-03 0 0 0
1189 1 2.4003704140895841e-02 1.0000000000000000e+00 1.9827884792308773e-01 8.7612882791696794e-02 4.2411025390148384e-02 0 0 0
242 1 2.5922110423409434e-02 1.0000000000000002e+00 1.8091337355242823e-01 1.0760092866848094e-01 4.5965440698226528e-02 0 0 0
1933 1 2.2501864122460535e-02 1.0000000000000002e+00 2.0781165428483700e-01 1.2931779887245443e-01 5.3504130806462824e-02 0 0 0
368 1 2.6520809743795920e-02 1.0000000000000000e+00 1.9275129809387948e-01 1.4798280871978892e-01 5.8564631034514446e-02 0 0 0
720 1 2.4025701086048831e-02 1.0000000000000002e+00 1.7109013201547119e-01 1.5330140334989509e-01 4.6680026753186755e-02 0 0 0
1268 1 1.3776924202114774e-02 1.0000000000000000e+00 1.7790549254960639e-01 1.2699461248400051e-01 4.8938824942031570e-02 0 0 0
1406 1 2.3302489935095649e-02 1.0000000000000002e+00 2.2890511291532933e-01 1.2568568635046853e-01 6.1651735622195801e-02 0 0 0
1437 1 1.1124100406246307e-02 1.0000000000000000e+00 1.8629114797651558e-01 9.2043240983893299e-02 5.4459163526260131e-02 0 0 0
1111 1 1.5547802115579976e-02 1.0000000000000000e+00 2.1713968425934194e-01 1.4438869751276562e-01 6.0417894983547722e-02 0 0 0
1648 1 2.5918254170528732e-02 9.9999999999999978e-01 2.3567092764776457e-01 1.1040820774240877e-01 4.3582624954114559e-02 0 0 0
1808 1 3.6810878937510248e-02 1.0000000000000002e+00 2.3885916798646983e-01 8.9163436203646820e-02 1.8405427680736382e-02 0 0 0
633 1 3.0500887902686787e-02 1.0000000000000000e+00 3.0506162926229807e-01 8.1118840380771676e-02 5.6324300577376481e-02 0 0 0
726 1 2.3845019384215130e-02 1.0000000000000000e+00 2.6132570604710909e-01 1.1433912473777180e-01 4.6991414440443358e-02 0 0 0
1848 1 3.9409815142587672e-02 1.0000000000000000e+00 2.5297045702962839e-01 8.4538536931512698e-02 5.3503579194579862e-02 0 0 0
991 1 3.8593106432162745e-02 1.0000000000000000e+00 2.5134110843443902e-01 1.2472811890868239e-01 1.9296534207930257e-02 0 0 0
1237 1 4.9996967781333702e-02 1.0000000000000000e+00 2.8518015186891449e-01 9.6719953459987795e-02 2.4998462561746978e-02 0 0 0
1827 1 3.6754128386617700e-02 1.0000000000000002e+00 2.7849839071735571e-01 1.5082290238963580e-01 1.8377056730076443e-02 0 0 0
215 1 3.4444407403676033e-02 1.0000000000000000e+00 2.9216291507602515e-01 1.2976116398173143e-01 5.0338268028522037e-02 0 0 0
1116 1 3.9482913440783939e-02 9.9999999999999978e-01 2.5910615569229611e-01 1.4629139734457580e-01 5.0898664454036957e-02 0 0 0
770 1 1.8199697792623051e-02 1.0000000000000000e+00 2.7888884265990127e-01 1.0790756930694403e-01 5.6588855604106619e-02 0 0 0
1273 1 1.3051051200856945e-02 1.0000000000000000e+00 2.4651789329046769e-01 1.2336154420553735e-01 5.3288606786677253e-02 0 0 0
730 1 1.1735714265022294e-02 1.0000000000000000e+00 3.2586176784355508e-01 8.4692964137037766e-02 5.5574297340266296e-02 0 0 0
1277 1 3.8531623402857977e-02 1.0000000000000000e+00 3.1114645683757325e-01 1.3210660747065978e-01 1.9265789404739081e-02 0 0 0
1432 1 1.9879736364763107e-02 1.0000000000000000e+00 3.3872647574905557e-01 8.1484591009811674e-02 4.6966753991338074e-02 0 0 0
1021 1 2.5932247869638842e-02 1.0000000000000000e+00 3.2117919170082282e-01 9.7496617197306637e-02 1.2966116978086374e-02 0 0 0
1946 1 3.7310245142928439e-02 1.0000000000000000e+00 3.2423884945334003e-01 1.0586454597573064e-01 4.3306176610667428e-02 0 0 0
208 1 4.4519984030406919e-02 1.0000000000000000e+00 3.5648210562563271e-01 9.2027052678960747e-02 2.2259972422184714e-02 0 0 0
669 1 4.1748182453097860e-02 1.0000000000000000e+00 3.5116294855742658e-01 1.3480946683310546e-01 2.0874078990653428e-02 0 0 0
1597 1 3.9719872730653680e-02 9.9999999999999978e-01 3.2606755643402335e-01 1.4452621014803241e-01 5.3235450398718166e-02 0 0 0
761 1 3.9715539566108744e-02 1.0000000000000000e+00 3.7689774511221535e-01 1.1848205281634351e-01 4.7896666209106334e-02 0 0 0
844 1 2.5493182025613816e-02 1.0000000000000000e+00 3.5191514510069161e-01 9.8730717724382674e-02 5.6313818831207084e-02 0 0 0
1508 1 2.1759646614901557e-02 1.0000000000000000e+00 3.7079851766402167e-01 1.5008185128027976e-01 4.0610078523362764e-02 0 0 0
1770 1 1.6939249246818597e-02 1.0000000000000000e+00 3.6711167092827657e-01 8.5059235114257545e-02 5.0238020294690898e-02 0 0 0
776 1 1.9609481212501174e-02 1.0000000000000000e+00 3.5561929076405341e-01 1.4032538634518354e-01 5.0722132546410351e-02 0 0 0
809 1 2.1930131638390075e-02 1.0000000000000000e+00 3.4685159512629732e-01 1.2177282110653029e-01 5.3933779749253265e-02 0 0 0
1301 1 1.4319390135034636e-02 1.0000000000000000e+00 3.7102031941538077e-01 1.4313530999904803e-01 5.7257017540225844e-02 0 0 0
1241 1 1.0756862517798721e-02 1.0000000000000002e+00 3.8164922540755492e-01 1.3870869983896056e-01 6.2220493266223018e-02 0 0 0
1048 1 1.2182261497798498e-02 1.0000000000000000e+00 4.0563087383112245e-01 9.5770730424990694e-02 5.6003427808907623e-02 0 0 0
749 1 1.8840994298849719e-02 1.0000000000000000e+00 3.9837822846263515e-01 1.3634353240777250e-01 5.6658701239793795e-02 0 0 0
1245 1 3.6902168014506888e-02 9.9999999999999989e-01 3.9196248830641389e-01 8.3038575459305680e-02 4.0085269486006762e-02 0 0 0
792 1 2.0550539498473769e-02 1.0000000000000000e+00 4.1749238468053168e-01 1.3349681501799632e-01 5.2854961850270381e-02 0 0 0
531 1 3.2484478886464829e-02 1.0000000000000002e+00 3.9089242157791487e-01 1.0821774605439381e-01 1.6242227538577094e-02 0 0 0
1446 1 2.0331685268474595e-02 1.0000000000000000e+00 4.2961003805165277e-01 9.6922250961607143e-02 3.5958370277417655e-02 0 0 0
26 1 3.0831072656824752e-02 1.0000000000000002e+00 4.3765512348114471e-01 1.1120719139436713e-01 5.5595681073412340e-02 0 0 0
58 1 4.9013160764711516e-02 9.9999999999999989e-01 4.0210552321940118e-01 1.4651178263252965e-01 2.4506554803863368e-02 0 0 0
424 1 3.1400936684292245e-02 1.0000000000000000e+00 4.2266850164131320e-01 1.1143079360633210e-01 1.5700456034747422e-02 0 0 0
622 1 3.0569648193460728e-02 9.9999999999999989e-01 4.4025833265646203e-01 1.3693595593929545e-01 1.5284815510458757e-02 0 0 0
1290 1 2.8387573239574013e-02 1.0000000000000000e+00 4.0954804389801025e-01 1.1043192051190083e-01 4.2542998775406002e-02 0 0 0
606 1 4.8546359091320247e-02 1.0000000000000000e+00 4.6109855214635398e-01 1.0453641512641733e-01 2.4273158224576590e-02 0 0 0
613 1 2.6234450422336558e-02 1.0000000000000000e+00 4.5033871919378637e-01 1.3575614215617585e-01 4.1811598116806140e-02 0 0 0
1720 1 1.9796383832486525e-02 9.9999999999999978e-01 4.3278114502931103e-01 1.5046792049773677e-01 3.9574515941780956e-02 0 0 0
1221 1 2.1428371635930785e-02 1.0000000000000000e+00 4.1884845927033149e-01 8.6829704180928932e-02 5.0733499222829277e-02 0 0 0
1865 1 2.1604876952061838e-02 1.0000000000000002e+00 4.2884043370731334e-01 1.2676188051778911e-01 3.6419263856706421e-02 0 0 0
540 1 2.0811290801880551e-02 1.0000000000000000e+00 4.3511017942718494e-01 1.4288115438524066e-01 5.8263078122419827e-02 0 0 0
1840 1 1.7266170516268432e-02 1.0000000000000000e+00 4.4279437755351997e-01 8.9340133844886274e-02 4.7007547628889930e-02 0 0 0
133 1 1.7904991213188039e-02 1.0000000000000000e+00 3.8578735055708852e-01 1.4936427349643408e-01 5.3576991010854592e-02 0 0 0