ITEM: TIMESTEP
0
ITEM: NUMBER OF ATOMS
0
ITEM: BOX BOUNDS pp pp ff
0.0000000000000000e+00 2.0000000000000000e+02
0.0000000000000000e+00 2.0000000000000000e+02
0.0000000000000000e+00 4.0000000000000000e+01
ITEM: ATOMS id type mass radius xs ys zs 
ITEM: TIMESTEP
100
ITEM: NUMBER OF ATOMS
9942
ITEM: BOX BOUNDS pp pp ff
0.0000000000000000e+00 2.0000000000000000e+02
0.0000000000000000e+00 2.0000000000000000e+02
0.0000000000000000e+00 4.0000000000000000e+01
ITEM: ATOMS id type mass radius xs ys zs 
1 1 0.523599 0.5 0.552381 0.866994 0.800433 
2 1 0.523599 0.5 0.41054 0.940134 0.381014 
3 1 0.523599 0.5 0.6411 0.973921 0.236664 
4 1 0.523599 0.5 0.531675 0.854556 0.596925 
5 1 0.523599 0.5 0.469885 0.362451 0.803033 
6 1 0.523599 0.5 0.581252 0.104283 0.795028 
7 1 0.523599 0.5 0.964392 0.541084 0.715779 
8 1 0.523599 0.5 0.650723 0.708284 0.0240092 
9 1 0.523599 0.5 0.432411 0.526549 0.328649 
10 1 0.523599 0.5 0.856578 0.501051 0.721466 
11 1 0.523599 0.5 0.00113957 0.152816 0.237459 
12 1 0.523599 0.5 0.424129 0.337514 0.617512 
13 1 0.523599 0.5 0.0563867 0.690452 0.718179 
14 1 0.523599 0.5 0.124467 0.915178 0.613254 
15 1 0.523599 0.5 0.0768818 0.153123 0.969352 
16 1 0.523599 0.5 0.841774 0.701508 0.845615 
17 1 0.523599 0.5 0.0499331 0.225551 0.773345 
18 1 0.523599 0.5 0.781228 0.0953444 0.610314 
19 1 0.523599 0.5 0.440364 0.194025 0.511306 
20 1 0.523599 0.5 0.4181 0.00559796 0.740617 
21 1 0.523599 0.5 0.991404 0.522015 0.475182 
22 1 0.523599 0.5 0.647117 0.0963879 0.775684 
23 1 0.523599 0.5 0.810913 0.0149738 0.724912 
24 1 0.523599 0.5 0.326286 0.886648 0.904165 
25 1 0.523599 0.5 0.828362 0.272787 0.354867 
26 1 0.523599 0.5 0.138409 0.23762 0.820541 
27 1 0.523599 0.5 0.609606 0.654983 0.470377 
28 1 0.523599 0.5 0.87087 0.710919 0.0215254 
29 1 0.523599 0.5 0.676575 0.202447 0.940193 
30 1 0.523599 0.5 0.0161946 0.183365 0.666421 
31 1 0.523599 0.5 0.682097 0.00770564 0.393006 
32 1 0.523599 0.5 0.864775 0.277418 0.960049 
33 1 0.523599 0.5 0.449239 0.363144 0.275778 
34 1 0.523599 0.5 0.126227 0.499214 0.86938 
35 1 0.523599 0.5 0.873325 0.966466 0.295247 
36 1 0.523599 0.5 0.621344 0.934218 0.213519 
37 1 0.523599 0.5 0.547928 0.0225249 0.0414696 
38 1 0.523599 0.5 0.531378 0.865144 0.817485 
39 1 0.523599 0.5 0.142132 0.808034 0.836785 
40 1 0.523599 0.5 0.891646 0.893587 0.203008 
41 1 0.523599 0.5 0.270606 0.0793247 0.169615 
42 1 0.523599 0.5 0.28966 0.315415 0.41754 
43 1 0.523599 0.5 0.312975 0.162941 0.325341 
44 1 0.523599 0.5 0.270375 0.189721 0.426588 
45 1 0.523599 0.5 0.420524 0.752736 0.861426 
46 1 0.523599 0.5 0.12847 0.188472 0.924627 
47 1 0.523599 0.5 0.371904 0.595699 0.94313 
48 1 0.523599 0.5 0.578319 0.808323 0.593743 
49 1 0.523599 0.5 0.518508 0.56989 0.0322583 
10000 1 0.523599 0.5 0.559752 0.748136 0.0970146 
51 1 0.523599 0.5 0.859224 0.983723 0.726715 
52 1 0.523599 0.5 0.576799 0.261637 0.424847 
53 1 0.523599 0.5 0.102721 0.42749 0.904908 
54 1 0.523599 0.5 0.175769 0.157322 0.16112 
55 1 0.523599 0.5 0.586059 0.901426 0.792868 
56 1 0.523599 0.5 0.449002 0.37481 0.8468 
57 1 0.523599 0.5 0.086956 0.468701 0.987439 
58 1 0.523599 0.5 0.251286 0.364156 0.828705 
59 1 0.523599 0.5 0.610255 0.551762 0.33019 
60 1 0.523599 0.5 0.249342 0.682788 0.880518 
61 1 0.523599 0.5 0.402068 0.549285 0.895661 
62 1 0.523599 0.5 0.324027 0.928561 0.635909 
63 1 0.523599 0.5 0.300691 0.708031 0.853574 
64 1 0.523599 0.5 0.74847 0.534842 0.422121 
65 1 0.523599 0.5 0.214028 0.163431 0.809643 
66 1 0.523599 0.5 0.610528 0.13778 0.692642 
67 1 0.523599 0.5 0.763754 0.416551 0.0713711 
68 1 0.523599 0.5 0.815653 0.313488 0.0543042 
69 1 0.523599 0.5 0.230202 0.997434 0.0924954 
70 1 0.523599 0.5 0.173506 0.120862 0.244311 
71 1 0.523599 0.5 0.401097 0.231884 0.184041 
72 1 0.523599 0.5 0.623513 0.385056 0.885586 
73 1 0.523599 0.5 0.601741 0.452822 0.134823 
74 1 0.523599 0.5 0.599886 0.275776 0.0795132 
75 1 0.523599 0.5 0.974821 0.81307 0.481371 
76 1 0.523599 0.5 0.109215 0.56995 0.538557 
77 1 0.523599 0.5 0.691606 0.81776 0.503854 
78 1 0.523599 0.5 0.175573 0.854399 0.942482 
79 1 0.523599 0.5 0.335449 0.897268 0.869113 
80 1 0.523599 0.5 0.75458 0.224617 0.140552 
81 1 0.523599 0.5 0.25992 0.478692 0.914198 
82 1 0.523599 0.5 0.789599 0.782189 0.701731 
83 1 0.523599 0.5 0.649634 0.403275 0.524096 
84 1 0.523599 0.5 0.200059 0.391175 0.849223 
85 1 0.523599 0.5 0.617528 0.793647 0.456519 
86 1 0.523599 0.5 0.79809 0.504838 0.0756049 
87 1 0.523599 0.5 0.741412 0.905139 0.606595 
88 1 0.523599 0.5 0.0881367 0.313549 0.955353 
89 1 0.523599 0.5 0.703548 0.52777 0.361741 
90 1 0.523599 0.5 0.0205088 0.691013 0.586931 
91 1 0.523599 0.5 0.0705278 0.360052 0.192438 
92 1 0.523599 0.5 0.465123 0.317367 0.780346 
93 1 0.523599 0.5 0.541734 0.928863 0.365459 
94 1 0.523599 0.5 0.805601 0.733671 0.899867 
95 1 0.523599 0.5 0.573656 0.430804 0.962648 
96 1 0.523599 0.5 0.112821 0.190847 0.115618 
97 1 0.523599 0.5 0.116168 0.430643 0.535399 
98 1 0.523599 0.5 0.0346926 0.0789495 0.764424 
99 1 0.523599 0.5 0.361142 0.705296 0.935642 
100 1 0.523599 0.5 0.0422691 0.416435 0.80184 
101 1 0.523599 0.5 0.075884 0.383115 0.754798 
102 1 0.523599 0.5 0.512556 0.520802 0.557086 
103 1 0.523599 0.5 0.98277 0.413412 0.488799 
104 1 0.523599 0.5 0.438837 0.52578 0.659554 
105 1 0.523599 0.5 0.12823 0.166219 0.234845 
106 1 0.523599 0.5 0.36352 0.67382 0.0486911 
107 1 0.523599 0.5 0.805724 0.802204 0.986974 
108 1 0.523599 0.5 0.14348 0.464003 0.970259 
109 1 0.523599 0.5 0.418208 0.82472 0.342615 
110 1 0.523599 0.5 0.769878 0.337384 0.77217 
111 1 0.523599 0.5 0.191559 0.526612 0.393237 
112 1 0.523599 0.5 0.138825 0.231757 0.982595 
113 1 0.523599 0.5 0.332938 0.687843 0.856288 
114 1 0.523599 0.5 0.0641813 0.695021 0.623329 
115 1 0.523599 0.5 0.260759 0.583147 0.620022 
116 1 0.523599 0.5 0.685383 0.225237 0.955338 
117 1 0.523599 0.5 0.7723 0.0520435 0.100956 
118 1 0.523599 0.5 0.648001 0.957912 0.880994 
119 1 0.523599 0.5 0.285668 0.224882 0.868425 
120 1 0.523599 0.5 0.152871 0.306242 0.119421 
121 1 0.523599 0.5 0.944951 0.785668 0.0212542 
122 1 0.523599 0.5 0.719993 0.930675 0.722666 
123 1 0.523599 0.5 0.23416 0.521283 0.674533 
124 1 0.523599 0.5 0.155805 0.618035 0.308442 
125 1 0.523599 0.5 0.345269 0.928121 0.861252 
126 1 0.523599 0.5 0.921475 0.230093 0.92687 
127 1 0.523599 0.5 0.380777 0.71397 0.637196 
128 1 0.523599 0.5 0.709205 0.652738 0.496313 
129 1 0.523599 0.5 0.75226 0.232487 0.745841 
130 1 0.523599 0.5 0.187674 0.238108 0.699351 
131 1 0.523599 0.5 0.550333 0.444986 0.808325 
132 1 0.523599 0.5 0.146599 0.885698 0.983444 
133 1 0.523599 0.5 0.878724 0.709962 0.657785 
134 1 0.523599 0.5 0.299797 0.688665 0.860455 
135 1 0.523599 0.5 0.304845 0.529114 0.097826 
136 1 0.523599 0.5 0.79805 0.834736 0.886102 
137 1 0.523599 0.5 0.236919 0.898054 0.682359 
138 1 0.523599 0.5 0.138944 0.229649 0.855758 
139 1 0.523599 0.5 0.577146 0.0963366 0.899121 
140 1 0.523599 0.5 0.117394 0.035681 0.236927 
141 1 0.523599 0.5 0.430641 0.780225 0.618394 
142 1 0.523599 0.5 0.722447 0.170546 0.838674 
143 1 0.523599 0.5 0.603678 0.0226884 0.0916575 
144 1 0.523599 0.5 0.296545 0.0336065 0.985466 
145 1 0.523599 0.5 0.775082 0.804011 0.498384 
146 1 0.523599 0.5 0.534533 0.888428 0.43097 
147 1 0.523599 0.5 0.338423 0.87179 0.842066 
148 1 0.523599 0.5 0.399837 0.058127 0.803565 
149 1 0.523599 0.5 0.120372 0.0926536 0.629217 
150 1 0.523599 0.5 0.810926 0.228767 0.30004 
151 1 0.523599 0.5 0.635474 0.00686439 0.185755 
152 1 0.523599 0.5 0.725397 0.753146 0.136137 
153 1 0.523599 0.5 0.429762 0.00295208 0.955269 
154 1 0.523599 0.5 0.343333 0.395931 0.355678 
155 1 0.523599 0.5 0.294338 0.945045 0.275693 
156 1 0.523599 0.5 0.0509306 0.990206 0.370802 
157 1 0.523599 0.5 0.342363 0.0975328 0.11873 
158 1 0.523599 0.5 0.226728 0.625868 0.978963 
159 1 0.523599 0.5 0.494932 0.318857 0.765839 
160 1 0.523599 0.5 0.884975 0.771667 0.525635 
161 1 0.523599 0.5 0.0873308 0.768717 0.78475 
162 1 0.523599 0.5 0.484382 0.0100044 0.570681 
163 1 0.523599 0.5 0.765527 0.219318 0.595168 
164 1 0.523599 0.5 0.0813905 0.929423 0.770788 
165 1 0.523599 0.5 0.658538 0.0496379 0.61801 
166 1 0.523599 0.5 0.820409 0.618443 0.271278 
167 1 0.523599 0.5 0.990401 0.673939 0.818932 
168 1 0.523599 0.5 0.200015 0.645635 0.845458 
169 1 0.523599 0.5 0.565438 0.323507 0.890916 
170 1 0.523599 0.5 0.194487 0.745967 0.693527 
171 1 0.523599 0.5 0.412193 0.730248 0.122293 
172 1 0.523599 0.5 0.707649 0.455559 0.912256 
173 1 0.523599 0.5 0.287521 0.365457 0.509737 
174 1 0.523599 0.5 0.428128 0.541036 0.76728 
175 1 0.523599 0.5 0.330263 0.730275 0.0505509 
176 1 0.523599 0.5 0.264055 0.965933 0.106296 
177 1 0.523599 0.5 0.916127 0.346935 0.8367 
178 1 0.523599 0.5 0.447759 0.480095 0.976626 
179 1 0.523599 0.5 0.354644 0.505046 0.557177 
180 1 0.523599 0.5 0.731801 0.378551 0.505274 
181 1 0.523599 0.5 0.115879 0.582027 0.132884 
182 1 0.523599 0.5 0.782701 0.857178 0.138673 
183 1 0.523599 0.5 0.972069 0.561177 0.197253 
184 1 0.523599 0.5 0.838853 0.602232 0.0683788 
185 1 0.523599 0.5 0.267361 0.532607 0.156526 
186 1 0.523599 0.5 0.811913 0.828934 0.753988 
187 1 0.523599 0.5 0.330295 0.269918 0.159859 
188 1 0.523599 0.5 0.93787 0.78631 0.902627 
189 1 0.523599 0.5 0.713814 0.0694797 0.591302 
190 1 0.523599 0.5 0.253094 0.756046 0.939944 
191 1 0.523599 0.5 0.811829 0.40448 0.387046 
192 1 0.523599 0.5 0.225669 0.820455 0.522488 
193 1 0.523599 0.5 0.522239 0.27656 0.937761 
194 1 0.523599 0.5 0.590036 0.737133 0.43249 
195 1 0.523599 0.5 0.297998 0.458805 0.860766 
196 1 0.523599 0.5 0.204045 0.638013 0.142149 
197 1 0.523599 0.5 0.298874 0.17263 0.596187 
198 1 0.523599 0.5 0.492296 0.0249963 0.803823 
199 1 0.523599 0.5 0.699686 0.614212 0.338724 
200 1 0.523599 0.5 0.328715 0.717716 0.419805 
201 1 0.523599 0.5 0.0837416 0.445708 0.438971 
202 1 0.523599 0.5 0.0843702 0.00930342 0.252545 
203 1 0.523599 0.5 0.932361 0.197771 0.939076 
204 1 0.523599 0.5 0.0640619 0.687894 0.234852 
205 1 0.523599 0.5 0.644711 0.662007 0.468554 
206 1 0.523599 0.5 0.720851 0.345469 0.824521 
207 1 0.523599 0.5 0.518559 0.424498 0.249255 
208 1 0.523599 0.5 0.695873 0.535673 0.973666 
209 1 0.523599 0.5 0.0493887 0.0756571 0.827235 
210 1 0.523599 0.5 0.187941 0.717037 0.655952 
211 1 0.523599 0.5 0.046199 0.467266 0.959209 
212 1 0.523599 0.5 0.38392 0.550728 0.854252 
213 1 0.523599 0.5 0.450616 0.502485 0.574184 
214 1 0.523599 0.5 0.0100553 0.999933 0.418551 
215 1 0.523599 0.5 0.566568 0.306232 0.557568 
216 1 0.523599 0.5 0.97862 0.662837 0.814297 
217 1 0.523599 0.5 0.992566 0.050833 0.501143 
218 1 0.523599 0.5 0.527435 0.598399 0.485002 
219 1 0.523599 0.5 0.188063 0.773549 0.713923 
220 1 0.523599 0.5 0.294713 0.239935 0.276806 
221 1 0.523599 0.5 0.86576 0.82183 0.403176 
222 1 0.523599 0.5 0.279912 0.482787 0.683294 
223 1 0.523599 0.5 0.0164655 0.735252 0.544365 
224 1 0.523599 0.5 0.315498 0.579898 0.0512348 
225 1 0.523599 0.5 0.101517 0.201405 0.788869 
226 1 0.523599 0.5 0.783623 0.356364 0.8607 
227 1 0.523599 0.5 0.365489 0.778235 0.771852 
228 1 0.523599 0.5 0.633769 0.754366 0.344812 
229 1 0.523599 0.5 0.60137 0.219049 0.458799 
230 1 0.523599 0.5 0.637343 0.81556 0.0217821 
231 1 0.523599 0.5 0.159721 0.436204 0.253668 
232 1 0.523599 0.5 0.434614 0.553383 0.976024 
233 1 0.523599 0.5 0.649627 0.273968 0.742357 
234 1 0.523599 0.5 0.556382 0.120026 0.0867845 
235 1 0.523599 0.5 0.820229 0.584199 0.733823 
236 1 0.523599 0.5 0.608658 0.711456 0.946392 
237 1 0.523599 0.5 0.0696457 0.535774 0.69182 
238 1 0.523599 0.5 0.0112226 0.0183312 0.469975 
239 1 0.523599 0.5 0.617664 0.0733512 0.935393 
240 1 0.523599 0.5 0.32468 0.895872 0.508432 
241 1 0.523599 0.5 0.917358 0.644226 0.140699 
242 1 0.523599 0.5 0.454307 0.541379 0.0795298 
243 1 0.523599 0.5 0.897915 0.250472 0.25985 
244 1 0.523599 0.5 0.322812 0.494122 0.0464104 
245 1 0.523599 0.5 0.777086 0.4853 0.739443 
246 1 0.523599 0.5 0.625243 0.452207 0.96365 
247 1 0.523599 0.5 0.457681 0.251532 0.734275 
248 1 0.523599 0.5 0.0445786 0.233168 0.804373 
249 1 0.523599 0.5 0.0538054 0.306805 0.234541 
9991 1 0.523599 0.5 0.151435 0.175769 0.718804 
251 1 0.523599 0.5 0.961754 0.20284 0.978081 
252 1 0.523599 0.5 0.747888 0.76081 0.309175 
253 1 0.523599 0.5 0.0635492 0.0710696 0.923252 
254 1 0.523599 0.5 0.799523 0.586599 0.715473 
255 1 0.523599 0.5 0.818382 0.346719 0.0580774 
256 1 0.523599 0.5 0.823239 0.176432 0.935386 
257 1 0.523599 0.5 0.0456141 0.63539 0.781706 
258 1 0.523599 0.5 0.906096 0.751609 0.708699 
259 1 0.523599 0.5 0.633206 0.286432 0.971785 
260 1 0.523599 0.5 0.163628 0.0886725 0.595819 
261 1 0.523599 0.5 0.720066 0.150031 0.964302 
262 1 0.523599 0.5 0.294349 0.119534 0.942877 
263 1 0.523599 0.5 0.74599 0.849924 0.296458 
264 1 0.523599 0.5 0.730378 0.469924 0.986067 
265 1 0.523599 0.5 0.85779 0.877801 0.823366 
266 1 0.523599 0.5 0.576582 0.609681 0.484315 
267 1 0.523599 0.5 0.929278 0.374583 0.844394 
268 1 0.523599 0.5 0.0694024 0.445588 0.83224 
269 1 0.523599 0.5 0.443013 0.72364 0.850042 
270 1 0.523599 0.5 0.3024 0.284523 0.180025 
271 1 0.523599 0.5 0.129395 0.742137 0.564763 
272 1 0.523599 0.5 0.940221 0.290332 0.829654 
273 1 0.523599 0.5 0.030601 0.310232 0.41281 
274 1 0.523599 0.5 0.439591 0.212677 0.523702 
275 1 0.523599 0.5 0.822431 0.606111 0.707161 
276 1 0.523599 0.5 0.676378 0.893309 0.381279 
277 1 0.523599 0.5 0.911991 0.825782 0.78188 
278 1 0.523599 0.5 0.571076 0.0710278 0.33709 
279 1 0.523599 0.5 0.92538 0.855381 0.761593 
280 1 0.523599 0.5 0.220975 0.924666 0.887126 
281 1 0.523599 0.5 0.420275 0.555987 0.136503 
282 1 0.523599 0.5 0.206067 0.35983 0.812332 
283 1 0.523599 0.5 0.691878 0.386223 0.976712 
284 1 0.523599 0.5 0.564531 0.0670877 0.258962 
285 1 0.523599 0.5 0.696067 0.805858 0.227588 
286 1 0.523599 0.5 0.393722 0.292185 0.109653 
287 1 0.523599 0.5 0.163678 0.939188 0.257671 
288 1 0.523599 0.5 0.671722 0.629609 0.636745 
289 1 0.523599 0.5 0.82975 0.616592 0.686263 
290 1 0.523599 0.5 0.33098 0.778939 0.569913 
291 1 0.523599 0.5 0.05557 0.964417 0.046869 
292 1 0.523599 0.5 0.34326 0.173413 0.898601 
293 1 0.523599 0.5 0.774638 0.340769 0.107475 
294 1 0.523599 0.5 0.616532 0.0483163 0.275458 
295 1 0.523599 0.5 0.847186 0.655807 0.271724 
296 1 0.523599 0.5 0.39407 0.126736 0.311585 
297 1 0.523599 0.5 0.0181266 0.653531 0.907316 
298 1 0.523599 0.5 0.0576822 0.46417 0.132943 
299 1 0.523599 0.5 0.819873 0.600814 0.430316 
300 1 0.523599 0.5 0.807363 0.349646 0.976164 
301 1 0.523599 0.5 0.942538 0.233226 0.677775 
302 1 0.523599 0.5 0.630606 0.593135 0.606603 
303 1 0.523599 0.5 0.0304603 0.946887 0.964965 
304 1 0.523599 0.5 0.896178 0.055829 0.186565 
305 1 0.523599 0.5 0.621725 0.338614 0.57518 
306 1 0.523599 0.5 0.0396919 0.102419 0.393529 
307 1 0.523599 0.5 0.142805 0.117521 0.0729425 
308 1 0.523599 0.5 0.64489 0.669203 0.569108 
309 1 0.523599 0.5 0.379647 0.721759 0.863501 
310 1 0.523599 0.5 0.545946 0.718123 0.740367 
311 1 0.523599 0.5 0.639244 0.781903 0.134819 
312 1 0.523599 0.5 0.0376864 0.395499 0.955027 
313 1 0.523599 0.5 0.960759 0.482624 0.417207 
314 1 0.523599 0.5 0.437013 0.877953 0.676214 
315 1 0.523599 0.5 0.523345 0.860462 0.873161 
316 1 0.523599 0.5 0.432993 0.307405 0.880921 
317 1 0.523599 0.5 0.939467 0.616317 0.932264 
318 1 0.523599 0.5 0.74322 0.305778 0.905031 
319 1 0.523599 0.5 0.0860809 0.762148 0.344961 
320 1 0.523599 0.5 0.387379 0.684694 0.190585 
321 1 0.523599 0.5 0.747253 0.0769865 0.164433 
322 1 0.523599 0.5 0.564538 0.183207 0.724864 
323 1 0.523599 0.5 0.393515 0.806829 0.701431 
324 1 0.523599 0.5 0.974435 0.325026 0.0708882 
325 1 0.523599 0.5 0.381667 0.677198 0.502957 
326 1 0.523599 0.5 0.557994 0.207763 0.937848 
327 1 0.523599 0.5 0.3946 0.0467541 0.448615 
328 1 0.523599 0.5 0.342193 0.23737 0.185122 
329 1 0.523599 0.5 0.154167 0.0767829 0.914515 
330 1 0.523599 0.5 0.742927 0.37119 0.22098 
331 1 0.523599 0.5 0.567428 0.755267 0.353553 
332 1 0.523599 0.5 0.20946 0.386247 0.404306 
333 1 0.523599 0.5 0.979261 0.44186 0.26342 
334 1 0.523599 0.5 0.91112 0.189407 0.317647 
335 1 0.523599 0.5 0.114193 0.240639 0.610735 
336 1 0.523599 0.5 0.668986 0.646864 0.800108 
337 1 0.523599 0.5 0.565807 0.513226 0.49401 
338 1 0.523599 0.5 0.63577 0.392039 0.743624 
339 1 0.523599 0.5 0.432534 0.603182 0.026369 
340 1 0.523599 0.5 0.0497174 0.213551 0.266778 
341 1 0.523599 0.5 0.902471 0.835823 0.700227 
342 1 0.523599 0.5 0.045462 0.079454 0.292468 
343 1 0.523599 0.5 0.215025 0.920845 0.827473 
344 1 0.523599 0.5 0.634416 0.623698 0.263139 
345 1 0.523599 0.5 0.0899747 0.205449 0.55124 
346 1 0.523599 0.5 0.769618 0.966929 0.961229 
347 1 0.523599 0.5 0.470015 0.542713 0.971388 
348 1 0.523599 0.5 0.0124202 0.746424 0.95286 
349 1 0.523599 0.5 0.457907 0.0362391 0.974832 
350 1 0.523599 0.5 0.20374 0.256855 0.976193 
351 1 0.523599 0.5 0.500675 0.85274 0.881901 
352 1 0.523599 0.5 0.831187 0.767688 0.954729 
353 1 0.523599 0.5 0.163621 0.97242 0.313478 
354 1 0.523599 0.5 0.300312 0.349302 0.784517 
355 1 0.523599 0.5 0.883558 0.960283 0.511435 
356 1 0.523599 0.5 0.397132 0.593848 0.656774 
357 1 0.523599 0.5 0.0266857 0.506933 0.789692 
358 1 0.523599 0.5 0.3727 0.972185 0.972425 
359 1 0.523599 0.5 0.985387 0.396394 0.082663 
360 1 0.523599 0.5 0.127327 0.97699 0.227752 
9965 1 0.523599 0.5 0.433902 0.588305 0.951314 
362 1 0.523599 0.5 0.976807 0.201637 0.764023 
363 1 0.523599 0.5 0.688438 0.570994 0.691779 
364 1 0.523599 0.5 0.599716 0.431626 0.0807673 
365 1 0.523599 0.5 0.892754 0.51727 0.172879 
366 1 0.523599 0.5 0.0831069 0.777381 0.476811 
367 1 0.523599 0.5 0.124547 0.269781 0.0173616 
368 1 0.523599 0.5 0.97077 0.729386 0.647401 
369 1 0.523599 0.5 0.466285 0.845543 0.510804 
370 1 0.523599 0.5 0.467399 0.573215 0.87481 
371 1 0.523599 0.5 0.590608 0.353087 0.226448 
372 1 0.523599 0.5 0.910831 0.344008 0.510351 
373 1 0.523599 0.5 0.854427 0.354205 0.385764 
374 1 0.523599 0.5 0.760042 0.0295017 0.497542 
375 1 0.523599 0.5 0.526345 0.282855 0.389161 
376 1 0.523599 0.5 0.236646 0.316122 0.0365525 
377 1 0.523599 0.5 0.921226 0.0531756 0.249884 
378 1 0.523599 0.5 0.300952 0.0963858 0.370778 
379 1 0.523599 0.5 0.229673 0.109778 0.345621 
380 1 0.523599 0.5 0.245675 0.0665106 0.823447 
381 1 0.523599 0.5 0.0913108 0.660977 0.831751 
382 1 0.523599 0.5 0.532459 0.0383958 0.829379 
383 1 0.523599 0.5 0.196582 0.947293 0.511908 
384 1 0.523599 0.5 0.756072 0.299389 0.81864 
385 1 0.523599 0.5 0.874691 0.924823 0.964679 
386 1 0.523599 0.5 0.0739887 0.528188 0.889279 
387 1 0.523599 0.5 0.737567 0.288662 0.372812 
388 1 0.523599 0.5 0.868097 0.106839 0.588242 
389 1 0.523599 0.5 0.251092 0.244565 0.163416 
390 1 0.523599 0.5 0.855207 0.457637 0.960664 
391 1 0.523599 0.5 0.900058 0.277957 0.901885 
392 1 0.523599 0.5 0.217358 0.139995 0.103937 
393 1 0.523599 0.5 0.0557796 0.487465 0.929793 
394 1 0.523599 0.5 0.0399449 0.354447 0.0186837 
395 1 0.523599 0.5 0.573941 0.222287 0.378374 
396 1 0.523599 0.5 0.962753 0.986919 0.825554 
397 1 0.523599 0.5 0.765724 0.527736 0.775283 
398 1 0.523599 0.5 0.0413494 0.958902 0.669709 
399 1 0.523599 0.5 0.983253 0.537504 0.909477 
400 1 0.523599 0.5 0.0515717 0.76624 0.328686 
401 1 0.523599 0.5 0.618508 0.265063 0.430334 
402 1 0.523599 0.5 0.396432 0.839346 0.693974 
403 1 0.523599 0.5 0.0351477 0.727394 0.166939 
404 1 0.523599 0.5 0.729328 0.809206 0.685736 
405 1 0.523599 0.5 0.00253444 0.596369 0.0271417 
406 1 0.523599 0.5 0.25153 0.462466 0.060851 
407 1 0.523599 0.5 0.464012 0.653221 0.736416 
408 1 0.523599 0.5 0.71024 0.0101411 0.448764 
409 1 0.523599 0.5 0.58807 0.688465 0.853652 
410 1 0.523599 0.5 0.116238 0.605444 0.66552 
9990 1 0.523599 0.5 0.186371 0.33869 0.660265 
412 1 0.523599 0.5 0.916243 0.254218 0.0636754 
413 1 0.523599 0.5 0.601605 0.172938 0.88647 
414 1 0.523599 0.5 0.0372346 0.802716 0.638724 
415 1 0.523599 0.5 0.830306 0.960025 0.752983 
416 1 0.523599 0.5 0.565986 0.52356 0.755417 
417 1 0.523599 0.5 0.0971996 0.633219 0.793029 
418 1 0.523599 0.5 0.745886 0.11391 0.91052 
419 1 0.523599 0.5 0.0795039 0.221334 0.327513 
420 1 0.523599 0.5 0.995803 0.468588 0.726022 
421 1 0.523599 0.5 0.995709 0.883693 0.437626 
422 1 0.523599 0.5 0.227763 0.0195977 0.0949026 
423 1 0.523599 0.5 0.775368 0.720267 0.43392 
424 1 0.523599 0.5 0.83991 0.367065 0.580266 
425 1 0.523599 0.5 0.936672 0.648569 0.430216 
426 1 0.523599 0.5 0.932963 0.308149 0.053146 
427 1 0.523599 0.5 0.204532 0.569682 0.942851 
428 1 0.523599 0.5 0.893722 0.779902 0.981599 
429 1 0.523599 0.5 0.507235 0.102662 0.532931 
430 1 0.523599 0.5 0.947726 0.429498 0.515331 
431 1 0.523599 0.5 0.247447 0.845728 0.522321 
432 1 0.523599 0.5 0.510901 0.720004 0.427016 
433 1 0.523599 0.5 0.036932 0.715873 0.671078 
434 1 0.523599 0.5 0.679642 0.747181 0.113428 
435 1 0.523599 0.5 0.661964 0.62527 0.485588 
436 1 0.523599 0.5 0.568693 0.0300234 0.749438 
437 1 0.523599 0.5 0.3809 0.789422 0.256521 
438 1 0.523599 0.5 0.838357 0.273707 0.367385 
439 1 0.523599 0.5 0.22172 0.439727 0.927277 
440 1 0.523599 0.5 0.646581 0.0842846 0.974885 
441 1 0.523599 0.5 0.21306 0.90418 0.850375 
442 1 0.523599 0.5 0.776768 0.135773 0.437928 
443 1 0.523599 0.5 0.328448 0.233864 0.131974 
444 1 0.523599 0.5 0.862547 0.832365 0.235393 
445 1 0.523599 0.5 0.13415 0.66707 0.849133 
446 1 0.523599 0.5 0.51831 0.236803 0.294798 
447 1 0.523599 0.5 0.109248 0.137652 0.463558 
448 1 0.523599 0.5 0.334104 0.293086 0.266864 
449 1 0.523599 0.5 0.0809536 0.58771 0.891131 
450 1 0.523599 0.5 0.738783 0.718327 0.724791 
451 1 0.523599 0.5 0.826598 0.632354 0.723473 
452 1 0.523599 0.5 0.522069 0.420773 0.592761 
453 1 0.523599 0.5 0.915659 0.485988 0.484798 
454 1 0.523599 0.5 0.899745 0.0207659 0.977552 
455 1 0.523599 0.5 0.201044 0.954034 0.923872 
456 1 0.523599 0.5 0.535003 0.797451 0.967034 
457 1 0.523599 0.5 0.952718 0.326196 0.963981 
458 1 0.523599 0.5 0.32821 0.22926 0.529279 
459 1 0.523599 0.5 0.607128 0.996096 0.039758 
460 1 0.523599 0.5 0.645474 0.487806 0.561971 
461 1 0.523599 0.5 0.502691 0.733209 0.592762 
462 1 0.523599 0.5 0.43319 0.616949 0.669546 
463 1 0.523599 0.5 0.431008 0.404722 0.290252 
464 1 0.523599 0.5 0.863893 0.452654 0.95366 
465 1 0.523599 0.5 0.425782 0.121798 0.823087 
466 1 0.523599 0.5 0.998341 0.12385 0.347992 
467 1 0.523599 0.5 0.915116 0.356896 0.0432807 
468 1 0.523599 0.5 0.299975 0.687049 0.957014 
469 1 0.523599 0.5 0.415597 0.933166 0.983774 
470 1 0.523599 0.5 0.962603 0.461381 0.0614608 
471 1 0.523599 0.5 0.512133 0.418262 0.618608 
472 1 0.523599 0.5 0.454465 0.765188 0.0609209 
473 1 0.523599 0.5 0.809356 0.840668 0.13607 
474 1 0.523599 0.5 0.916469 0.0953401 0.829704 
475 1 0.523599 0.5 0.218443 0.374347 0.818211 
476 1 0.523599 0.5 0.524597 0.904043 0.2373 
477 1 0.523599 0.5 0.987988 0.106705 0.689973 
478 1 0.523599 0.5 0.277765 0.393771 0.682356 
479 1 0.523599 0.5 0.664796 0.224606 0.983589 
480 1 0.523599 0.5 0.385288 0.528181 0.976935 
481 1 0.523599 0.5 0.163675 0.885319 0.294764 
482 1 0.523599 0.5 0.575642 0.821515 0.67985 
483 1 0.523599 0.5 0.686862 0.0821148 0.162262 
484 1 0.523599 0.5 0.344364 0.729015 0.981785 
485 1 0.523599 0.5 0.861177 0.797709 0.121978 
486 1 0.523599 0.5 0.0483986 0.435137 0.0105175 
487 1 0.523599 0.5 0.53846 0.889507 0.75677 
488 1 0.523599 0.5 0.722912 0.976778 0.767091 
489 1 0.523599 0.5 0.40802 0.593105 0.742432 
490 1 0.523599 0.5 0.210288 0.305883 0.800345 
491 1 0.523599 0.5 0.15386 0.926296 0.949308 
492 1 0.523599 0.5 0.0161594 0.591527 0.0778667 
493 1 0.523599 0.5 0.769468 0.446783 0.84952 
494 1 0.523599 0.5 0.0793031 0.846979 0.848581 
495 1 0.523599 0.5 0.3047 0.0882179 0.254475 
496 1 0.523599 0.5 0.588059 0.512786 0.87133 
497 1 0.523599 0.5 0.139382 0.594943 0.695109 
498 1 0.523599 0.5 0.22093 0.173076 0.5921 
499 1 0.523599 0.5 0.112734 0.720358 0.519532 
500 1 0.523599 0.5 0.0936077 0.264747 0.665728 
501 1 0.523599 0.5 0.411961 0.831034 0.559782 
502 1 0.523599 0.5 0.956632 0.122091 0.555227 
503 1 0.523599 0.5 0.259711 0.965544 0.954693 
504 1 0.523599 0.5 0.0762844 0.112595 0.37278 
505 1 0.523599 0.5 0.912042 0.69292 0.0468857 
506 1 0.523599 0.5 0.592043 0.47337 0.318062 
507 1 0.523599 0.5 0.701156 0.322834 0.864583 
508 1 0.523599 0.5 0.156913 0.228522 0.545478 
509 1 0.523599 0.5 0.992581 0.308954 0.400371 
510 1 0.523599 0.5 0.0203592 0.176886 0.164838 
511 1 0.523599 0.5 0.0594301 0.841629 0.332773 
512 1 0.523599 0.5 0.188592 0.671512 0.270257 
9999 1 0.523599 0.5 0.802697 0.920371 0.219082 
514 1 0.523599 0.5 0.246907 0.774098 0.59354 
515 1 0.523599 0.5 0.509477 0.787859 0.846564 
516 1 0.523599 0.5 0.806488 0.642576 0.653322 
517 1 0.523599 0.5 0.627325 0.448819 0.836666 
518 1 0.523599 0.5 0.486123 0.274646 0.830412 
519 1 0.523599 0.5 0.837576 0.141874 0.0226306 
520 1 0.523599 0.5 0.478816 0.466359 0.93594 
521 1 0.523599 0.5 0.993554 0.653904 0.690436 
522 1 0.523599 0.5 0.457209 0.317441 0.729779 
523 1 0.523599 0.5 0.10401 0.0948559 0.961268 
524 1 0.523599 0.5 0.434792 0.553669 0.924389 
525 1 0.523599 0.5 0.967461 0.109861 0.150879 
526 1 0.523599 0.5 0.939113 0.67125 0.31054 
527 1 0.523599 0.5 0.966102 0.27441 0.565482 
528 1 0.523599 0.5 0.0215307 0.865934 0.0760369 
529 1 0.523599 0.5 0.69117 0.488067 0.836278 
530 1 0.523599 0.5 0.577128 0.783618 0.772749 
531 1 0.523599 0.5 0.165186 0.273951 0.666897 
532 1 0.523599 0.5 0.110662 0.89789 0.0321246 
533 1 0.523599 0.5 0.126021 0.0313885 0.918331 
534 1 0.523599 0.5 0.152659 0.732244 0.884031 
535 1 0.523599 0.5 0.823963 0.344183 0.303492 
536 1 0.523599 0.5 0.520109 0.464754 0.535367 
537 1 0.523599 0.5 0.772746 0.546794 0.325003 
538 1 0.523599 0.5 0.0956863 0.199648 0.971376 
539 1 0.523599 0.5 0.947219 0.907349 0.523743 
540 1 0.523599 0.5 0.151536 0.869043 0.854943 
541 1 0.523599 0.5 0.984524 0.892692 0.666148 
542 1 0.523599 0.5 0.46657 0.646935 0.974719 
543 1 0.523599 0.5 0.51966 0.927772 0.962488 
544 1 0.523599 0.5 0.821292 0.452309 0.965479 
545 1 0.523599 0.5 0.663392 0.628174 0.784442 
546 1 0.523599 0.5 0.409141 0.433696 0.473421 
547 1 0.523599 0.5 0.476637 0.845478 0.454951 
548 1 0.523599 0.5 0.613499 0.0852302 0.954482 
549 1 0.523599 0.5 0.0291856 0.522734 0.593102 
550 1 0.523599 0.5 0.0128291 0.617976 0.331416 
551 1 0.523599 0.5 0.623503 0.209275 0.371503 
552 1 0.523599 0.5 0.778416 0.830742 0.0435294 
553 1 0.523599 0.5 0.508169 0.794102 0.747174 
554 1 0.523599 0.5 0.0735585 0.297554 0.502983 
555 1 0.523599 0.5 0.505543 0.66159 0.930282 
556 1 0.523599 0.5 0.950855 0.0119069 0.871186 
557 1 0.523599 0.5 0.0348541 0.792164 0.293532 
558 1 0.523599 0.5 0.256021 0.944667 0.246032 
559 1 0.523599 0.5 0.232472 0.158764 0.830767 
560 1 0.523599 0.5 0.852287 0.387256 0.227362 
561 1 0.523599 0.5 0.514802 0.273736 0.463958 
562 1 0.523599 0.5 0.93329 0.797643 0.498708 
563 1 0.523599 0.5 0.367414 0.133941 0.743038 
564 1 0.523599 0.5 0.731254 0.183319 0.892709 
565 1 0.523599 0.5 0.0920256 0.674258 0.671754 
566 1 0.523599 0.5 0.409493 0.34817 0.354811 
567 1 0.523599 0.5 0.34021 0.980112 0.364145 
568 1 0.523599 0.5 0.279451 0.737906 0.0944438 
569 1 0.523599 0.5 0.633185 0.947581 0.627802 
570 1 0.523599 0.5 0.106696 0.244969 0.106201 
571 1 0.523599 0.5 0.068821 0.674406 0.384249 
572 1 0.523599 0.5 0.993679 0.755519 0.975848 
573 1 0.523599 0.5 0.567514 0.208233 0.743869 
574 1 0.523599 0.5 0.982401 0.219247 0.0862248 
575 1 0.523599 0.5 0.628736 0.158366 0.105565 
576 1 0.523599 0.5 0.0793898 0.304969 0.14899 
577 1 0.523599 0.5 0.649439 0.123862 0.980954 
578 1 0.523599 0.5 0.702845 0.709044 0.470542 
579 1 0.523599 0.5 0.249888 0.863354 0.901835 
580 1 0.523599 0.5 0.096406 0.295443 0.924072 
581 1 0.523599 0.5 0.310954 0.208511 0.058797 
582 1 0.523599 0.5 0.504062 0.768836 0.445598 
583 1 0.523599 0.5 0.669881 0.682415 0.273235 
584 1 0.523599 0.5 0.817029 0.80722 0.973721 
585 1 0.523599 0.5 0.204805 0.157069 0.52741 
586 1 0.523599 0.5 0.725992 0.746473 0.0245904 
587 1 0.523599 0.5 0.816641 0.285459 0.741259 
588 1 0.523599 0.5 0.201083 0.59611 0.695368 
589 1 0.523599 0.5 0.946649 0.337765 0.835543 
590 1 0.523599 0.5 0.871882 0.723191 0.510021 
591 1 0.523599 0.5 0.887407 0.649248 0.38918 
592 1 0.523599 0.5 0.617155 0.527793 0.583437 
593 1 0.523599 0.5 0.321843 0.208739 0.937885 
594 1 0.523599 0.5 0.838603 0.401319 0.366473 
595 1 0.523599 0.5 0.858671 0.676229 0.583956 
596 1 0.523599 0.5 0.802377 0.545894 0.850301 
597 1 0.523599 0.5 0.221072 0.551557 0.947198 
598 1 0.523599 0.5 0.123214 0.861493 0.27206 
599 1 0.523599 0.5 0.845577 0.619223 0.974143 
600 1 0.523599 0.5 0.93694 0.147792 0.0235077 
601 1 0.523599 0.5 0.189999 0.317118 0.958893 
602 1 0.523599 0.5 0.272533 0.93596 0.265177 
603 1 0.523599 0.5 0.427011 0.769208 0.756718 
604 1 0.523599 0.5 0.839324 0.524678 0.668354 
605 1 0.523599 0.5 0.39666 0.66853 0.834748 
606 1 0.523599 0.5 0.539365 0.105635 0.801972 
607 1 0.523599 0.5 0.0194402 0.731202 0.777631 
608 1 0.523599 0.5 0.471007 0.221567 0.946065 
609 1 0.523599 0.5 0.123996 0.998484 0.353213 
610 1 0.523599 0.5 0.882584 0.594993 0.926646 
611 1 0.523599 0.5 0.885356 0.184336 0.898883 
612 1 0.523599 0.5 0.0189549 0.574771 0.872546 
613 1 0.523599 0.5 0.118914 0.592752 0.637645 
614 1 0.523599 0.5 0.405269 0.35083 0.913705 
615 1 0.523599 0.5 0.0407661 0.155998 0.746304 
616 1 0.523599 0.5 0.0923364 0.897554 0.41774 
617 1 0.523599 0.5 0.113571 0.783897 0.243227 
618 1 0.523599 0.5 0.270766 0.758541 0.123868 
619 1 0.523599 0.5 0.0258341 0.192973 0.294496 
620 1 0.523599 0.5 0.158457 0.191806 0.26972 
621 1 0.523599 0.5 0.605857 0.636275 0.553508 
622 1 0.523599 0.5 0.606638 0.756698 0.145745 
623 1 0.523599 0.5 0.107047 0.139015 0.972272 
624 1 0.523599 0.5 0.451004 0.0219213 0.613082 
625 1 0.523599 0.5 0.982899 0.588642 0.0915311 
626 1 0.523599 0.5 0.0792478 0.918232 0.394174 
627 1 0.523599 0.5 0.637017 0.350656 0.175286 
628 1 0.523599 0.5 0.966602 0.686129 0.696826 
629 1 0.523599 0.5 0.603323 0.043084 0.142774 
630 1 0.523599 0.5 0.252537 0.394346 0.863462 