LAMMPS (3 Mar 2020)
# ------------------------ INITIALIZATION ----------------------
clear
units 		metal
dimension	3
boundary	p	p	p
atom_style	sphere

# ----------------------- VARIABLES DEFINITION -----------------------




# ----------------------- ATOM DEFINITION -----------------------
lattice         fcc 1
Lattice spacing in x,y,z = 1 1 1
region		    upper block 0 10 0 10 0 10
create_box	    1 upper
Created orthogonal box = (0 0 0) to (10 10 10)
  1 by 1 by 1 MPI processor grid

lattice 	    fcc 1 orient x 1 0 0 orient y 0 1 0 orient z 0 0 1
Lattice spacing in x,y,z = 1 1 1
create_atoms	1 region upper
Created 4000 atoms
  create_atoms CPU = 0.00259709 secs

# ------------------------ FORCE FIELDS -----------------------
pair_style	granular
pair_coeff * * hooke 1000.0 50.0 tangential linear_history 500.0 1.0 0.4 damping mass_velocity

#---------------------------Settings----------------------------
#compute csym all centro/atom fcc
#compute eng all pe/atom
#compute eatoms all reduce sum c_eng
#compute strs all stress/atom


# ----------------------- ASSIGN FIXES -----------------------
fix 1 all nve/sphere
fix 2 all gravity 1.0 chute 24.0

#----------------------Run Minimization-------------------------
reset_timestep	0
timestep 0.005
#thermo 10
#thermo_style custom step pe lx ly lz press pxx pyy pzz c_eatoms
#dump 1 all custom 10 dump.comp.* id type xs ys zs c_csym c_eng c_strs[1] c_strs[2] c_strs[3]
#dump     1 all custom 250 dump.comp.* id type xs ys zs c_csym fx fy fz


dump     1 all custom 250 dump.comp.* id x y z

#min_style cg
#minimize 1e-15 1e-15 5000 5000


run     20000
ERROR: Pair granular requires ghost atoms store velocity (../pair_granular.cpp:974)
Last command: run     20000
