LAMMPS (3 Mar 2020)
# ------------------------ INITIALIZATION ----------------------
clear
units 		metal
dimension	3
boundary	p	p	p
atom_style	granular
ERROR: Unrecognized atom style 'granular' (../atom.cpp:511)
Last command: atom_style	granular
