LAMMPS (5 May 2020)
OMP_NUM_THREADS environment is not set. Defaulting to 1 thread. (src/comm.cpp:94)
  using 1 OpenMP thread(s) per MPI task
clear
OMP_NUM_THREADS environment is not set. Defaulting to 1 thread. (src/comm.cpp:94)
  using 1 OpenMP thread(s) per MPI task
# ----------------------- VARIABLES DEFINITION -----------------------
variable name string Test_perso_1

# ------------------------ INITIALIZATION ----------------------

units 		lj
dimension	3
boundary	p	p	f
atom_style	sphere


# ----------------------- SYSTEM DEFINITION -----------------------
region		    boxreg block 0 20 0 20 0 20
create_box	    1 boxreg
Created orthogonal box = (0 0 0) to (20 20 20)
  1 by 1 by 1 MPI processor grid


comm_modify vel yes


#  ---------------------- ATOM DEFINITION -------------------------

#create_atoms	1 region boxreg

fix 1 all nve/sphere
fix 2 all gravity 1.0 vector 0 0 -1

fix insertion all pour 10 1 1234 region boxreg
Particle insertion: 3819 every 1265 steps, 10 by step 1
#FIX id groupID "ajout" nb type randSeed REGION regionID


comm_modify vel yes

fix 3 all wall/gran granular hertz/material 1e5 1e3 0.3 tangential mindlin NULL 1.0 0.5 zplane 0 NULL

# ------------------------ FORCE FIELDS -----------------------
pair_style	granular
pair_coeff      1 * jkr 1000.0 50.0 0.3 10 tangential mindlin 800.0 1.0 0.5 rolling sds 500.0 200.0 0.5 twisting marshall
#pair_coeff * * hooke 1000.0 50.0 tangential linear_history 500.0 1.0 0.4 damping mass_velocity

#--------------------------- OUTPUT SETTINGS ----------------------------
#compute csym all centro/atom fcc
#compute eng all pe/atom
#compute eatoms all reduce sum c_eng
#compute strs all stress/atom

#----------------------Run Minimization-------------------------
# reset_timestep	0
timestep 0.001

thermo_style    custom step cpu atoms ke
thermo_modify   lost warn
thermo 100
#thermo_style custom step pe lx ly lz press pxx pyy pzz c_eatoms

#dump 1 all custom 10 dump.comp.* id type xs ys zs c_csym c_eng c_strs[1] c_strs[2] c_strs[3]
#dump     1 all custom 250 dump.comp.* id type xs ys zs c_csym fx fy fz

dump     1 all custom 500 ${name}.dump id type mass radius xs ys zs
dump     1 all custom 500 Test_perso_1.dump id type mass radius xs ys zs

#min_style cg
#minimize 1e-15 1e-15 5000 5000


run     20000
Neighbor list info ...
  update every 1 steps, delay 10 steps, check yes
  max neighbors/atom: 2000, page size: 100000
  master list distance cutoff = 1.24649
  ghost atom cutoff = 1.24649
  binsize = 0.623243, bins = 33 33 33
  1 neighbor lists, perpetual/occasional/extra = 1 0 0
  (1) pair granular, perpetual
      attributes: half, newton on, size, history
      pair build: half/size/bin/newton
      stencil: half/bin/3d/newton
      bin: standard
Per MPI rank memory allocation (min/avg/max) = 12.08 | 12.08 | 12.08 Mbytes
Step CPU Atoms KinEng 
       0            0        0           -0 
     100  0.001654022       10           -0 
     200  0.002280321       10           -0 
     300  0.002897869       10           -0 
     400  0.003491799       10           -0 
     500  0.004237696       10           -0 
     600   0.00475056       10           -0 
     700  0.005328571       10           -0 
     800  0.005852345       10           -0 
     900   0.00634192       10           -0 
    1000  0.007024049       10           -0 
    1100  0.008044734       10           -0 
    1200  0.008701683       10           -0 
    1300  0.009268709       10           -0 
    1400  0.009908201       10           -0 
    1500  0.010649987       10           -0 
    1600  0.011279043       10           -0 
    1700  0.011913352       10           -0 
    1800  0.012547344       10           -0 
    1900  0.013176176       10           -0 
    2000  0.014040857       10           -0 
    2100  0.014595849       10           -0 
    2200  0.015235265       10           -0 
    2300  0.015729038       10           -0 
    2400  0.016308561       10           -0 
    2500  0.017058364       10           -0 
    2600  0.017635432       10           -0 
    2700   0.01814877       10           -0 
    2800  0.018982375       10           -0 
    2900  0.019525933       10           -0 
    3000  0.020304076       10           -0 
    3100  0.021066437       10           -0 
    3200  0.021874118       10           -0 
    3300  0.022509799       10           -0 
    3400  0.023220172       10           -0 
    3500  0.024009225       10           -0 
    3600  0.024568641       10           -0 
    3700   0.02509457       10           -0 
    3800  0.025796151       10           -0 
    3900  0.026527355       10           -0 
    4000  0.027445756       10           -0 
    4100   0.02828045       10           -0 
    4200    0.0289278       10           -0 
    4300  0.029585537       10           -0 
    4400  0.039262315       10           -0 
    4500  0.043886388       10           -0 
    4600   0.04480001       10           -0 
    4700  0.045270015       10           -0 
    4800  0.045731033       10           -0 
    4900  0.046173126       10           -0 
    5000  0.046912406       10           -0 
    5100  0.047732401       10           -0 
    5200  0.048316681       10           -0 
    5300  0.048804892       10           -0 
    5400  0.049290668       10           -0 
    5500  0.049891086       10           -0 
    5600  0.050382119       10           -0 
    5700  0.050876174       10           -0 
    5800  0.051449033       10           -0 
    5900  0.051927497       10           -0 
    6000  0.052526088       10           -0 
    6100  0.053181079       10           -0 
    6200  0.053635953       10           -0 
    6300  0.054166797       10           -0 
    6400  0.054609311       10           -0 
    6500  0.056068743       10           -0 
    6600  0.057777314       10           -0 
    6700  0.058547173       10           -0 
    6800  0.059093301       10           -0 
    6900  0.059808938       10           -0 
    7000  0.060671659       10           -0 
    7100  0.061404529       10           -0 
    7200   0.06313558       10           -0 
    7300  0.063649823       10           -0 
    7400  0.064122708       10           -0 
    7500   0.06473452       10           -0 
    7600  0.065204338       10           -0 
    7700  0.066303206       10           -0 
    7800   0.06685795       10           -0 
    7900  0.067356411       10           -0 
    8000  0.067952457       10           -0 
    8100  0.068636742       10           -0 
    8200  0.069139665       10           -0 
    8300  0.069623966       10           -0 
    8400  0.070172777       10           -0 
    8500  0.070743916       10           -0 
    8600  0.071225477       10           -0 
    8700   0.07174884       10           -0 
    8800  0.072190939       10           -0 
    8900  0.072601031       10           -0 
    9000  0.073139337       10           -0 
    9100  0.073677389       10           -0 
    9200  0.074065391       10           -0 
    9300  0.074586009       10           -0 
    9400  0.075022579       10           -0 
    9500   0.07653382       10           -0 
    9600  0.076992064       10           -0 
    9700  0.077512109       10           -0 
    9800  0.077930657       10           -0 
    9900  0.078456721       10           -0 
   10000  0.082005592       10           -0 
   10100  0.082442144       10           -0 
   10200  0.083307221       10           -0 
   10300  0.083821606       10           -0 
   10400  0.084241517       10           -0 
   10500  0.084783031       10           -0 
   10600  0.085278433       10           -0 
   10700  0.085708534       10           -0 
   10800  0.086233298       10           -0 
   10900  0.086756306       10           -0 
   11000  0.087284468       10           -0 
   11100  0.087718633       10           -0 
   11200  0.088179853       10           -0 
   11300  0.088601052       10           -0 
   11400  0.089031731       10           -0 
   11500  0.089566664       10           -0 
   11600  0.089977842       10           -0 
   11700  0.090427813       10           -0 
   11800  0.090951079       10           -0 
   11900  0.091798811       10           -0 
   12000  0.093523051       10           -0 
   12100  0.093969055       10           -0 
   12200  0.094389593       10           -0 
   12300  0.094806424       10           -0 
   12400  0.095437303       10           -0 
   12500  0.095940431       10           -0 
   12600  0.096448944       10           -0 
   12700  0.096894903       10           -0 
   12800  0.097535701       10           -0 
   12900  0.098040851       10           -0 
   13000  0.098683006       10           -0 
   13100  0.099189539       10           -0 
   13200  0.099657028       10           -0 
   13300     0.100129       10           -0 
   13400   0.10063216       10           -0 
   13500   0.10128831       10           -0 
   13600   0.10181682       10           -0 
   13700   0.10236839       10           -0 
   13800   0.10292376       10           -0 
   13900   0.10346597       10           -0 
   14000   0.10411084       10           -0 
   14100   0.10460148       10           -0 
   14200   0.10508114       10           -0 
   14300   0.10561627       10           -0 
   14400    0.1062733       10           -0 
   14500   0.10727493       10           -0 
   14600   0.10794562       10           -0 
   14700   0.10856857       10           -0 
   14800   0.10919596       10           -0 
   14900   0.10984218       10           -0 
   15000   0.11059316       10           -0 
   15100   0.11119093       10           -0 
   15200   0.11170189       10           -0 
   15300    0.1122585       10           -0 
   15400   0.11280019       10           -0 
   15500   0.11356849       10           -0 
   15600   0.11420478       10           -0 
   15700   0.11492767       10           -0 
   15800   0.11567717       10           -0 
   15900   0.11720781       10           -0 
   16000   0.11887795       10           -0 
   16100   0.11950347       10           -0 
   16200   0.12001408       10           -0 
   16300   0.12053302       10           -0 
   16400   0.12100163       10           -0 
   16500   0.12165447       10           -0 
   16600   0.12216971       10           -0 
   16700   0.12267953       10           -0 
   16800   0.12317917       10           -0 
   16900   0.12365448       10           -0 
   17000   0.12428023       10           -0 
   17100   0.12477038       10           -0 
   17200   0.12527183       10           -0 
   17300   0.12584638       10           -0 
   17400   0.12642903       10           -0 
   17500   0.12745355       10           -0 
   17600   0.12802739       10           -0 
   17700   0.12856631       10           -0 
   17800   0.12905638       10           -0 
   17900   0.12955751       10           -0 
   18000   0.13033325       10           -0 
   18100   0.13100432       10           -0 
   18200   0.13158582       10           -0 
   18300   0.13218394       10           -0 
   18400   0.13271495       10           -0 
   18500   0.13350167       10           -0 
   18600    0.1349243       10           -0 
   18700   0.13602878       10           -0 
   18800     0.137308       10           -0 
   18900   0.13803288       10           -0 
   19000   0.13868695       10           -0 
   19100   0.13926414       10           -0 
   19200   0.13982687       10           -0 
   19300   0.14055392       10           -0 
   19400   0.14275127       10           -0 
   19500   0.14394049       10           -0 
   19600   0.14474919       10           -0 
   19700   0.14564642       10           -0 
   19800   0.14815046       10           -0 
   19900   0.14938567       10           -0 
   20000   0.15039324       10           -0 
Loop time of 0.150421 on 1 procs for 20000 steps with 10 atoms

Performance: 11487793.663 tau/day, 132960.575 timesteps/s
81.4% CPU use with 1 MPI tasks x 1 OpenMP threads

MPI task timing breakdown:
Section |  min time  |  avg time  |  max time  |%varavg| %total
---------------------------------------------------------------
Pair    | 0.019644   | 0.019644   | 0.019644   |   0.0 | 13.06
Neigh   | 0.019197   | 0.019197   | 0.019197   |   0.0 | 12.76
Comm    | 0.031929   | 0.031929   | 0.031929   |   0.0 | 21.23
Output  | 0.021947   | 0.021947   | 0.021947   |   0.0 | 14.59
Modify  | 0.042057   | 0.042057   | 0.042057   |   0.0 | 27.96
Other   |            | 0.01565    |            |       | 10.40

Nlocal:    10 ave 10 max 10 min
Histogram: 1 0 0 0 0 0 0 0 0 0
Nghost:    3 ave 3 max 3 min
Histogram: 1 0 0 0 0 0 0 0 0 0
Neighs:    1 ave 1 max 1 min
Histogram: 1 0 0 0 0 0 0 0 0 0

Total # of neighbors = 1
Ave neighs/atom = 0.1
Neighbor list builds = 230
Dangerous builds = 0

print "All done"
All done
Total wall time: 0:00:00
