LAMMPS (3 Mar 2020)
clear
# ----------------------- VARIABLES DEFINITION -----------------------
variable name string dump_laser

# ------------------------ INITIALIZATION ----------------------

units 		si
dimension	3
boundary	f   f   f
atom_style	sphere


# ----------------------- SYSTEM DEFINITION -----------------------
region		    mainbox block 0 50 0 50 0 50 units box
create_box	    1 mainbox
Created orthogonal box = (0 0 0) to (50 50 50)
  1 by 1 by 1 MPI processor grid

fix		walls all wall/gran/region hooke/history 		4000.0 NULL 100.0 NULL 0.5 1 region mainbox
#fix Zwall all wall/gran granular hertz/material 1e5 1e3 0.3 tangential mindlin NULL 1.0 0.5 zplane 0 NULL
#fix Xwall all wall/gran granular hertz/material 1e5 1e3 0.3 tangential mindlin NULL 1.0 0.5 zplane 0 NULL
#fix Ywall all wall/gran granular hertz/material 1e5 1e3 0.3 tangential mindlin NULL 1.0 0.5 zplane 0 NULL

comm_modify vel yes

#  ---------------------- ATOM DEFINITION -------------------------

fix 1 all nve/sphere
fix 2 all gravity 1.0 vector 0 0 -1

neighbor 10 bin
neigh_modify	delay 0 every 1 check yes


fix insertion all pour 1000 1 1234 region mainbox diam range 0.1 1
Particle insertion: 59683 every 1000000000 steps, 1000 by step 1
#fix insertion all pour 1000 1 1234 region mainbox diam range 0.00002 0.00005
#FIX id groupID "ajout" nb type randSeed REGION regionID


# ------------------------ FORCE FIELDS -----------------------

#pair_style	granular
###pair_coeff * * hooke 1000.0 50.0 tangential linear_history 500.0 1.0 0.4 damping mass_velocity
#pair_coeff      1 * jkr 1000.0 50.0 0.3 10 tangential mindlin 800.0 1.0 0.5 rolling sds 500.0 200.0 0.5 twisting marshall


pair_style	hybrid gran/hooke 4000.0 NULL 100.0 NULL 0.5 1
pair_coeff	* * gran/hooke

#--------------------------- OUTPUT SETTINGS ----------------------------
#compute csym all centro/atom fcc
#compute eng all pe/atom
#compute eatoms all reduce sum c_eng
#compute strs all stress/atom

#----------------------Run Minimization-------------------------
timestep 0.001

thermo_style    custom step cpu atoms
thermo_modify   lost ignore
thermo 100
#thermo_style custom step pe lx ly lz press pxx pyy pzz c_eatoms

dump     1 all custom 100 ${name}.dump id type mass diameter element xs ys zs
dump     1 all custom 100 dump_laser.dump id type mass diameter element xs ys zs

#min_style cg
#minimize 1e-15 1e-15 5000 5000

run     10000
Neighbor list info ...
  update every 1 steps, delay 0 steps, check yes
  max neighbors/atom: 2000, page size: 100000
  master list distance cutoff = 11
  ghost atom cutoff = 11
  binsize = 5.5, bins = 10 10 10
  1 neighbor lists, perpetual/occasional/extra = 1 0 0
  (1) pair gran/hooke, perpetual
      attributes: half, newton on, size
      pair build: half/size/bin/newton
      stencil: half/bin/3d/newton
      bin: standard
Per MPI rank memory allocation (min/avg/max) = 0.421 | 0.421 | 0.421 Mbytes
Step CPU Atoms 
       0            0        0 
     100  0.028201818     1000 
     200  0.053141832     1000 
     300  0.082850933     1000 
     400   0.11858082      999 
     500   0.14834785      998 
     600   0.16992593      998 
     700   0.19169593      998 
     800    0.2121439      998 
     900   0.23342991      998 
    1000   0.25426292      998 
    1100   0.27523589      998 
    1200   0.29391789      998 
    1300    0.3148818      998 
    1400   0.34234691      998 
    1500   0.37174892      998 
    1600   0.41022396      998 
    1700   0.44437194      998 
    1800   0.48062301      998 
    1900    0.5177629      998 
    2000   0.54238892      998 
    2100   0.56543183      998 
    2200   0.58704591      998 
    2300   0.60816598      998 
    2400   0.62934589      998 
    2500   0.65292692      998 
    2600   0.67459083      998 
    2700   0.69587994      998 
    2800   0.72124481      998 
    2900   0.74558282      998 
    3000   0.77029085      996 
    3100   0.79201198      996 
    3200   0.81519794      996 
    3300   0.83417392      996 
    3400   0.85117888      996 
    3500     0.868963      996 
    3600   0.88636088      996 
    3700   0.90482497      996 
    3800   0.92211294      996 
    3900   0.94048595      996 
    4000   0.95931292      996 
    4100   0.97898698      996 
    4200     1.010473      996 
    4300    1.0483789      995 
    4400    1.0704119      995 
    4500    1.0976288      995 
    4600    1.1209099      995 
    4700    1.1472759      994 
    4800    1.1701539      994 
    4900    1.1941619      994 
    5000     1.217921      994 
    5100    1.2434819      994 
    5200     1.267602      994 
    5300    1.2929859      994 
    5400    1.3172538      994 
    5500     1.341171      994 
    5600     1.367074      993 
    5700    1.3918178      993 
    5800    1.4164069      993 
    5900     1.439697      993 
    6000    1.4649329      993 
    6100     1.490577      993 
    6200      1.51423      993 
    6300     1.537827      993 
    6400    1.5614178      993 
    6500    1.5836148      993 
    6600    1.6075659      993 
    6700    1.6303649      993 
    6800     1.651315      993 
    6900    1.6720169      993 
    7000    1.6929319      993 
    7100     1.719604      993 
    7200    1.7417669      993 
    7300    1.7632849      993 
    7400    1.7852209      992 
    7500    1.8059618      992 
    7600    1.8261368      992 
    7700    1.8476629      992 
    7800     1.870481      992 
    7900    1.8961599      992 
    8000    1.9188149      992 
    8100    1.9435048      992 
    8200    1.9670558      992 
    8300    1.9918649      992 
    8400    2.0149848      991 
    8500    2.0363798      991 
    8600    2.0586798      991 
    8700      2.08213      991 
    8800     2.105227      991 
    8900    2.1288998      991 
    9000     2.153306      991 
    9100    2.1770279      991 
    9200    2.2014349      991 
    9300     2.223985      990 
    9400    2.2455499      989 
    9500     2.266042      989 
    9600     2.287441      989 
    9700     2.309371      989 
    9800    2.3297629      989 
    9900    2.3516939      989 
   10000    2.3731129      989 
Loop time of 2.37312 on 1 procs for 10000 steps with 989 atoms

93.9% CPU use with 1 MPI tasks x no OpenMP threads

MPI task timing breakdown:
Section |  min time  |  avg time  |  max time  |%varavg| %total
---------------------------------------------------------------
Pair    | 1.0751     | 1.0751     | 1.0751     |   0.0 | 45.30
Neigh   | 0.2191     | 0.2191     | 0.2191     |   0.0 |  9.23
Comm    | 0.0042794  | 0.0042794  | 0.0042794  |   0.0 |  0.18
Output  | 0.21296    | 0.21296    | 0.21296    |   0.0 |  8.97
Modify  | 0.80289    | 0.80289    | 0.80289    |   0.0 | 33.83
Other   |            | 0.05881    |            |       |  2.48

Nlocal:    989 ave 989 max 989 min
Histogram: 1 0 0 0 0 0 0 0 0 0
Nghost:    0 ave 0 max 0 min
Histogram: 1 0 0 0 0 0 0 0 0 0
Neighs:    27285 ave 27285 max 27285 min
Histogram: 1 0 0 0 0 0 0 0 0 0

Total # of neighbors = 27285
Ave neighs/atom = 27.5885
Neighbor list builds = 176
Dangerous builds = 0

print "All done"
All done
Total wall time: 0:00:02
