ITEM: TIMESTEP
0
ITEM: NUMBER OF ATOMS
0
ITEM: BOX BOUNDS pp pp ff
0.0000000000000000e+00 2.0000000000000000e+01
0.0000000000000000e+00 2.0000000000000000e+01
0.0000000000000000e+00 2.0000000000000000e+01
ITEM: ATOMS id type mass radius xs ys zs 
ITEM: TIMESTEP
500
ITEM: NUMBER OF ATOMS
10
ITEM: BOX BOUNDS pp pp ff
0.0000000000000000e+00 2.0000000000000000e+01
0.0000000000000000e+00 2.0000000000000000e+01
0.0000000000000000e+00 2.0000000000000000e+01
ITEM: ATOMS id type mass radius xs ys zs 
1 1 0.523599 0.5 0.552381 0.866994 0.827925 
2 1 0.523599 0.5 0.41054 0.940134 0.430126 
3 1 0.523599 0.5 0.6411 0.973921 0.291304 
4 1 0.523599 0.5 0.531675 0.854556 0.636381 
5 1 0.523599 0.5 0.469885 0.362451 0.83034 
6 1 0.523599 0.5 0.581252 0.104283 0.822902 
7 1 0.523599 0.5 0.964392 0.541084 0.748765 
8 1 0.523599 0.5 0.650723 0.708284 0.030042 
9 1 0.523599 0.5 0.432411 0.526549 0.379834 
10 1 0.523599 0.5 0.856578 0.501051 0.754111 
ITEM: TIMESTEP
1000
ITEM: NUMBER OF ATOMS
10
ITEM: BOX BOUNDS pp pp ff
0.0000000000000000e+00 2.0000000000000000e+01
0.0000000000000000e+00 2.0000000000000000e+01
0.0000000000000000e+00 2.0000000000000000e+01
ITEM: ATOMS id type mass radius xs ys zs 
1 1 0.523599 0.5 0.552381 0.866994 0.756077 
2 1 0.523599 0.5 0.41054 0.940134 0.304505 
3 1 0.523599 0.5 0.6411 0.973921 0.151936 
4 1 0.523599 0.5 0.531675 0.854556 0.534776 
5 1 0.523599 0.5 0.469885 0.362451 0.758953 
6 1 0.523599 0.5 0.581252 0.104283 0.750103 
7 1 0.523599 0.5 0.964392 0.541084 0.663253 
8 1 0.523599 0.5 0.650723 0.708284 0.0817261 
9 1 0.523599 0.5 0.432411 0.526549 0.249057 
10 1 0.523599 0.5 0.856578 0.501051 0.669446 
ITEM: TIMESTEP
1500
ITEM: NUMBER OF ATOMS
10
ITEM: BOX BOUNDS pp pp ff
0.0000000000000000e+00 2.0000000000000000e+01
0.0000000000000000e+00 2.0000000000000000e+01
0.0000000000000000e+00 2.0000000000000000e+01
ITEM: ATOMS id type mass radius xs ys zs 
8 1 0.523599 0.5 0.650723 0.708284 0.12091 
3 1 0.523599 0.5 0.6411 0.973921 0.0314681 
9 1 0.523599 0.5 0.432411 0.526549 0.10578 
2 1 0.523599 0.5 0.41054 0.940134 0.166384 
4 1 0.523599 0.5 0.531675 0.854556 0.420672 
10 1 0.523599 0.5 0.856578 0.501051 0.572281 
7 1 0.523599 0.5 0.964392 0.541084 0.56524 
6 1 0.523599 0.5 0.581252 0.104283 0.664804 
5 1 0.523599 0.5 0.469885 0.362451 0.675066 
1 1 0.523599 0.5 0.552381 0.866994 0.671728 
ITEM: TIMESTEP
2000
ITEM: NUMBER OF ATOMS
10
ITEM: BOX BOUNDS pp pp ff
0.0000000000000000e+00 2.0000000000000000e+01
0.0000000000000000e+00 2.0000000000000000e+01
0.0000000000000000e+00 2.0000000000000000e+01
ITEM: ATOMS id type mass radius xs ys zs 
2 1 0.523599 0.5 0.41054 0.940134 0.0257695 
9 1 0.523599 0.5 0.432411 0.526549 0.0486799 
3 1 0.523599 0.5 0.6411 0.973921 0.0817919 
8 1 0.523599 0.5 0.650723 0.708284 0.147594 
4 1 0.523599 0.5 0.531675 0.854556 0.294067 
10 1 0.523599 0.5 0.856578 0.501051 0.462617 
7 1 0.523599 0.5 0.964392 0.541084 0.454728 
6 1 0.523599 0.5 0.581252 0.104283 0.567005 
5 1 0.523599 0.5 0.469885 0.362451 0.578679 
1 1 0.523599 0.5 0.552381 0.866994 0.574879 
ITEM: TIMESTEP
2500
ITEM: NUMBER OF ATOMS
10
ITEM: BOX BOUNDS pp pp ff
0.0000000000000000e+00 2.0000000000000000e+01
0.0000000000000000e+00 2.0000000000000000e+01
0.0000000000000000e+00 2.0000000000000000e+01
ITEM: ATOMS id type mass radius xs ys zs 
2 1 0.523599 0.5 0.41054 0.940134 0.0773312 
9 1 0.523599 0.5 0.432411 0.526549 0.0953886 
3 1 0.523599 0.5 0.6411 0.973921 0.119616 
8 1 0.523599 0.5 0.650723 0.708284 0.161779 
4 1 0.523599 0.5 0.531675 0.854556 0.154962 
10 1 0.523599 0.5 0.856578 0.501051 0.340452 
7 1 0.523599 0.5 0.964392 0.541084 0.331715 
6 1 0.523599 0.5 0.581252 0.104283 0.456706 
5 1 0.523599 0.5 0.469885 0.362451 0.469792 
1 1 0.523599 0.5 0.552381 0.866994 0.465531 
ITEM: TIMESTEP
3000
ITEM: NUMBER OF ATOMS
10
ITEM: BOX BOUNDS pp pp ff
0.0000000000000000e+00 2.0000000000000000e+01
0.0000000000000000e+00 2.0000000000000000e+01
0.0000000000000000e+00 2.0000000000000000e+01
ITEM: ATOMS id type mass radius xs ys zs 
2 1 0.523599 0.5 0.41054 0.940134 0.116393 
9 1 0.523599 0.5 0.432411 0.526549 0.129597 
3 1 0.523599 0.5 0.6411 0.973921 0.144939 
8 1 0.523599 0.5 0.650723 0.708284 0.163463 
4 1 0.523599 0.5 0.531675 0.854556 0.0303886 
10 1 0.523599 0.5 0.856578 0.501051 0.205787 
7 1 0.523599 0.5 0.964392 0.541084 0.196203 
6 1 0.523599 0.5 0.581252 0.104283 0.333907 
5 1 0.523599 0.5 0.469885 0.362451 0.348405 
1 1 0.523599 0.5 0.552381 0.866994 0.343682 
ITEM: TIMESTEP
3500
ITEM: NUMBER OF ATOMS
10
ITEM: BOX BOUNDS pp pp ff
0.0000000000000000e+00 2.0000000000000000e+01
0.0000000000000000e+00 2.0000000000000000e+01
0.0000000000000000e+00 2.0000000000000000e+01
ITEM: ATOMS id type mass radius xs ys zs 
4 1 0.523599 0.5 0.531675 0.854556 0.0819945 
2 1 0.523599 0.5 0.41054 0.940134 0.142954 
9 1 0.523599 0.5 0.432411 0.526549 0.151306 
3 1 0.523599 0.5 0.6411 0.973921 0.157763 
8 1 0.523599 0.5 0.650723 0.708284 0.152647 
10 1 0.523599 0.5 0.856578 0.501051 0.0586224 
7 1 0.523599 0.5 0.964392 0.541084 0.0481905 
6 1 0.523599 0.5 0.581252 0.104283 0.198608 
1 1 0.523599 0.5 0.552381 0.866994 0.209333 
5 1 0.523599 0.5 0.469885 0.362451 0.214518 
ITEM: TIMESTEP
4000
ITEM: NUMBER OF ATOMS
10
ITEM: BOX BOUNDS pp pp ff
0.0000000000000000e+00 2.0000000000000000e+01
0.0000000000000000e+00 2.0000000000000000e+01
0.0000000000000000e+00 2.0000000000000000e+01
ITEM: ATOMS id type mass radius xs ys zs 
4 1 0.523599 0.5 0.523818 0.849837 0.0883014 
2 1 0.523599 0.5 0.41054 0.940134 0.157016 
9 1 0.523599 0.5 0.432411 0.526549 0.160515 
3 1 0.523599 0.5 0.6411 0.973921 0.158087 
8 1 0.523599 0.5 0.650723 0.708284 0.129331 
10 1 0.523599 0.5 0.856578 0.501051 0.0643247 
7 1 0.523599 0.5 0.964392 0.541084 0.0676509 
6 1 0.523599 0.5 0.581252 0.104283 0.0508084 
1 1 0.523599 0.5 0.560237 0.871714 0.0952835 
5 1 0.523599 0.5 0.469885 0.362451 0.0681309 
ITEM: TIMESTEP
4500
ITEM: NUMBER OF ATOMS
10
ITEM: BOX BOUNDS pp pp ff
0.0000000000000000e+00 2.0000000000000000e+01
0.0000000000000000e+00 2.0000000000000000e+01
0.0000000000000000e+00 2.0000000000000000e+01
ITEM: ATOMS id type mass radius xs ys zs 
6 1 0.523599 0.5 0.581252 0.104283 0.0672599 
5 1 0.523599 0.5 0.469885 0.362451 0.061297 
10 1 0.523599 0.5 0.856578 0.501051 0.106825 
7 1 0.523599 0.5 0.964392 0.541084 0.109365 
4 1 0.523599 0.5 0.534632 0.856333 0.0609528 
1 1 0.523599 0.5 0.55272 0.867198 0.0250005 
8 1 0.523599 0.5 0.650723 0.708284 0.0935151 
9 1 0.523599 0.5 0.432411 0.526549 0.157223 
2 1 0.523599 0.5 0.41054 0.940134 0.158578 
3 1 0.523599 0.5 0.6411 0.973921 0.14591 
ITEM: TIMESTEP
5000
ITEM: NUMBER OF ATOMS
10
ITEM: BOX BOUNDS pp pp ff
0.0000000000000000e+00 2.0000000000000000e+01
0.0000000000000000e+00 2.0000000000000000e+01
0.0000000000000000e+00 2.0000000000000000e+01
ITEM: ATOMS id type mass radius xs ys zs 
6 1 0.523599 0.5 0.581252 0.104283 0.10972 
5 1 0.523599 0.5 0.469885 0.362451 0.104613 
10 1 0.523599 0.5 0.856578 0.501051 0.136826 
7 1 0.523599 0.5 0.964392 0.541084 0.138579 
4 1 0.523599 0.5 0.53821 0.858482 0.0725227 
1 1 0.523599 0.5 0.548912 0.86491 0.0309936 
8 1 0.523599 0.5 0.650723 0.708284 0.0451992 
9 1 0.523599 0.5 0.432411 0.526549 0.141432 
2 1 0.523599 0.5 0.41054 0.940134 0.147639 
3 1 0.523599 0.5 0.6411 0.973921 0.121234 
ITEM: TIMESTEP
5500
ITEM: NUMBER OF ATOMS
10
ITEM: BOX BOUNDS pp pp ff
0.0000000000000000e+00 2.0000000000000000e+01
0.0000000000000000e+00 2.0000000000000000e+01
0.0000000000000000e+00 2.0000000000000000e+01
ITEM: ATOMS id type mass radius xs ys zs 
1 1 0.523599 0.5 0.544525 0.862275 0.0264047 
8 1 0.523599 0.5 0.650723 0.708284 0.0383121 
4 1 0.523599 0.5 0.542357 0.860973 0.0696918 
6 1 0.523599 0.5 0.581252 0.104283 0.139681 
5 1 0.523599 0.5 0.469885 0.362451 0.135429 
3 1 0.523599 0.5 0.6411 0.973921 0.0840579 
9 1 0.523599 0.5 0.432411 0.526549 0.113141 
10 1 0.523599 0.5 0.856578 0.501051 0.154327 
7 1 0.523599 0.5 0.964392 0.541084 0.155294 
2 1 0.523599 0.5 0.41054 0.940134 0.124201 
ITEM: TIMESTEP
6000
ITEM: NUMBER OF ATOMS
10
ITEM: BOX BOUNDS pp pp ff
0.0000000000000000e+00 2.0000000000000000e+01
0.0000000000000000e+00 2.0000000000000000e+01
0.0000000000000000e+00 2.0000000000000000e+01
ITEM: ATOMS id type mass radius xs ys zs 
1 1 0.523599 0.5 0.544431 0.862219 0.025013 
8 1 0.523599 0.5 0.650723 0.708284 0.0509336 
4 1 0.523599 0.5 0.545612 0.862928 0.0683699 
6 1 0.523599 0.5 0.581252 0.104283 0.157142 
5 1 0.523599 0.5 0.469885 0.362451 0.153744 
3 1 0.523599 0.5 0.6411 0.973921 0.0343816 
9 1 0.523599 0.5 0.432411 0.526549 0.0723494 
10 1 0.523599 0.5 0.856578 0.501051 0.159327 
7 1 0.523599 0.5 0.964392 0.541084 0.159508 
2 1 0.523599 0.5 0.41054 0.940134 0.0882627 
ITEM: TIMESTEP
6500
ITEM: NUMBER OF ATOMS
10
ITEM: BOX BOUNDS pp pp ff
0.0000000000000000e+00 2.0000000000000000e+01
0.0000000000000000e+00 2.0000000000000000e+01
0.0000000000000000e+00 2.0000000000000000e+01
ITEM: ATOMS id type mass radius xs ys zs 
1 1 0.523599 0.5 0.545366 0.86278 0.0249682 
8 1 0.523599 0.5 0.650723 0.708284 0.051055 
3 1 0.523599 0.5 0.6411 0.973921 0.0413122 
9 1 0.523599 0.5 0.432411 0.526549 0.0261902 
4 1 0.523599 0.5 0.54883 0.864861 0.0679754 
2 1 0.523599 0.5 0.41054 0.940134 0.0398243 
5 1 0.523599 0.5 0.469885 0.362451 0.15956 
6 1 0.523599 0.5 0.581252 0.104283 0.162102 
10 1 0.523599 0.5 0.856578 0.501051 0.151828 
7 1 0.523599 0.5 0.964392 0.541084 0.151222 
ITEM: TIMESTEP
7000
ITEM: NUMBER OF ATOMS
10
ITEM: BOX BOUNDS pp pp ff
0.0000000000000000e+00 2.0000000000000000e+01
0.0000000000000000e+00 2.0000000000000000e+01
0.0000000000000000e+00 2.0000000000000000e+01
ITEM: ATOMS id type mass radius xs ys zs 
1 1 0.523599 0.5 0.546569 0.863503 0.0249692 
8 1 0.523599 0.5 0.650723 0.708284 0.0386765 
3 1 0.523599 0.5 0.6411 0.973921 0.0510705 
9 1 0.523599 0.5 0.432411 0.526549 0.0452403 
4 1 0.523599 0.5 0.552548 0.867094 0.0676331 
2 1 0.523599 0.5 0.41054 0.940134 0.0396809 
5 1 0.523599 0.5 0.469885 0.362451 0.152876 
6 1 0.523599 0.5 0.581252 0.104283 0.154563 
10 1 0.523599 0.5 0.856578 0.501051 0.131829 
7 1 0.523599 0.5 0.964392 0.541084 0.130437 
ITEM: TIMESTEP
7500
ITEM: NUMBER OF ATOMS
10
ITEM: BOX BOUNDS pp pp ff
0.0000000000000000e+00 2.0000000000000000e+01
0.0000000000000000e+00 2.0000000000000000e+01
0.0000000000000000e+00 2.0000000000000000e+01
ITEM: ATOMS id type mass radius xs ys zs 
1 1 0.523599 0.5 0.548106 0.864426 0.0249694 
9 1 0.523599 0.5 0.432411 0.526549 0.0517904 
8 1 0.523599 0.5 0.650723 0.708284 0.028586 
2 1 0.523599 0.5 0.41054 0.940134 0.0506781 
3 1 0.523599 0.5 0.6411 0.973921 0.0483287 
4 1 0.523599 0.5 0.557135 0.86985 0.0668935 
7 1 0.523599 0.5 0.964392 0.541084 0.0971509 
6 1 0.523599 0.5 0.581252 0.104283 0.134524 
5 1 0.523599 0.5 0.469885 0.362451 0.133692 
10 1 0.523599 0.5 0.856578 0.501051 0.0993293 
ITEM: TIMESTEP
8000
ITEM: NUMBER OF ATOMS
10
ITEM: BOX BOUNDS pp pp ff
0.0000000000000000e+00 2.0000000000000000e+01
0.0000000000000000e+00 2.0000000000000000e+01
0.0000000000000000e+00 2.0000000000000000e+01
ITEM: ATOMS id type mass radius xs ys zs 
1 1 0.523599 0.5 0.55012 0.865636 0.0249698 
9 1 0.523599 0.5 0.432411 0.526549 0.0458405 
8 1 0.523599 0.5 0.650723 0.708284 0.0312378 
2 1 0.523599 0.5 0.41054 0.940134 0.0491752 
3 1 0.523599 0.5 0.6411 0.973921 0.0330869 
4 1 0.523599 0.5 0.563012 0.87338 0.0655008 
7 1 0.523599 0.5 0.964392 0.541084 0.0513652 
6 1 0.523599 0.5 0.581252 0.104283 0.101984 
5 1 0.523599 0.5 0.469885 0.362451 0.102008 
10 1 0.523599 0.5 0.856578 0.501051 0.0543299 
ITEM: TIMESTEP
8500
ITEM: NUMBER OF ATOMS
10
ITEM: BOX BOUNDS pp pp ff
0.0000000000000000e+00 2.0000000000000000e+01
0.0000000000000000e+00 2.0000000000000000e+01
0.0000000000000000e+00 2.0000000000000000e+01
ITEM: ATOMS id type mass radius xs ys zs 
8 1 0.523599 0.5 0.650723 0.708284 0.0260332 
1 1 0.523599 0.5 0.552826 0.867262 0.0249707 
9 1 0.523599 0.5 0.432411 0.526549 0.0273905 
10 1 0.523599 0.5 0.856578 0.501051 0.0344832 
7 1 0.523599 0.5 0.964392 0.541084 0.0356706 
2 1 0.523599 0.5 0.41054 0.940134 0.0351724 
3 1 0.523599 0.5 0.6411 0.973921 0.0304398 
4 1 0.523599 0.5 0.570646 0.877966 0.0628831 
6 1 0.523599 0.5 0.581252 0.104283 0.0569447 
5 1 0.523599 0.5 0.469885 0.362451 0.0578233 
ITEM: TIMESTEP
9000
ITEM: NUMBER OF ATOMS
10
ITEM: BOX BOUNDS pp pp ff
0.0000000000000000e+00 2.0000000000000000e+01
0.0000000000000000e+00 2.0000000000000000e+01
0.0000000000000000e+00 2.0000000000000000e+01
ITEM: ATOMS id type mass radius xs ys zs 
8 1 0.523599 0.5 0.650723 0.708284 0.024913 
1 1 0.523599 0.5 0.556535 0.869489 0.0249723 
9 1 0.523599 0.5 0.432411 0.526549 0.0314353 
10 1 0.523599 0.5 0.856578 0.501051 0.0488961 
7 1 0.523599 0.5 0.964392 0.541084 0.0493786 
2 1 0.523599 0.5 0.41054 0.940134 0.029832 
3 1 0.523599 0.5 0.6411 0.973921 0.029621 
4 1 0.523599 0.5 0.58047 0.883867 0.0580034 
6 1 0.523599 0.5 0.581252 0.104283 0.0336619 
5 1 0.523599 0.5 0.469885 0.362451 0.0330611 
ITEM: TIMESTEP
9500
ITEM: NUMBER OF ATOMS
10
ITEM: BOX BOUNDS pp pp ff
0.0000000000000000e+00 2.0000000000000000e+01
0.0000000000000000e+00 2.0000000000000000e+01
0.0000000000000000e+00 2.0000000000000000e+01
ITEM: ATOMS id type mass radius xs ys zs 
8 1 0.523599 0.5 0.650723 0.708284 0.0251467 
1 1 0.523599 0.5 0.56173 0.87261 0.024975 
2 1 0.523599 0.5 0.41054 0.940134 0.0302526 
3 1 0.523599 0.5 0.6411 0.973921 0.0268561 
6 1 0.523599 0.5 0.581252 0.104283 0.0489273 
5 1 0.523599 0.5 0.469885 0.362451 0.04838 
9 1 0.523599 0.5 0.432411 0.526549 0.0275598 
10 1 0.523599 0.5 0.856578 0.501051 0.050809 
7 1 0.523599 0.5 0.964392 0.541084 0.0505866 
4 1 0.523599 0.5 0.592577 0.89114 0.0490198 
ITEM: TIMESTEP
10000
ITEM: NUMBER OF ATOMS
10
ITEM: BOX BOUNDS pp pp ff
0.0000000000000000e+00 2.0000000000000000e+01
0.0000000000000000e+00 2.0000000000000000e+01
0.0000000000000000e+00 2.0000000000000000e+01
ITEM: ATOMS id type mass radius xs ys zs 
8 1 0.523599 0.5 0.650723 0.708284 0.0249856 
1 1 0.523599 0.5 0.569253 0.877129 0.0249786 
2 1 0.523599 0.5 0.41054 0.940134 0.0266853 
3 1 0.523599 0.5 0.6411 0.973921 0.0255903 
6 1 0.523599 0.5 0.581252 0.104283 0.0516927 
5 1 0.523599 0.5 0.469885 0.362451 0.0511989 
9 1 0.523599 0.5 0.432411 0.526549 0.026767 
10 1 0.523599 0.5 0.856578 0.501051 0.0402219 
7 1 0.523599 0.5 0.964392 0.541084 0.0392946 
4 1 0.523599 0.5 0.605773 0.899067 0.0329483 
ITEM: TIMESTEP
10500
ITEM: NUMBER OF ATOMS
10
ITEM: BOX BOUNDS pp pp ff
0.0000000000000000e+00 2.0000000000000000e+01
0.0000000000000000e+00 2.0000000000000000e+01
0.0000000000000000e+00 2.0000000000000000e+01
ITEM: ATOMS id type mass radius xs ys zs 
9 1 0.523599 0.5 0.432411 0.526549 0.025327 
8 1 0.523599 0.5 0.650723 0.708284 0.0249805 
1 1 0.523599 0.5 0.578847 0.882892 0.0273953 
4 1 0.523599 0.5 0.615952 0.905181 0.0273405 
2 1 0.523599 0.5 0.41054 0.940134 0.0254912 
3 1 0.523599 0.5 0.6411 0.973921 0.0250529 
6 1 0.523599 0.5 0.581252 0.104283 0.0419581 
5 1 0.523599 0.5 0.469885 0.362451 0.0415178 
10 1 0.523599 0.5 0.856578 0.501051 0.0275496 
7 1 0.523599 0.5 0.964392 0.541084 0.0280709 
ITEM: TIMESTEP
11000
ITEM: NUMBER OF ATOMS
10
ITEM: BOX BOUNDS pp pp ff
0.0000000000000000e+00 2.0000000000000000e+01
0.0000000000000000e+00 2.0000000000000000e+01
0.0000000000000000e+00 2.0000000000000000e+01
ITEM: ATOMS id type mass radius xs ys zs 
9 1 0.523599 0.5 0.432411 0.526549 0.0250066 
8 1 0.523599 0.5 0.650723 0.708284 0.0249804 
1 1 0.523599 0.5 0.586746 0.887637 0.0269954 
4 1 0.523599 0.5 0.623811 0.909902 0.0252527 
2 1 0.523599 0.5 0.41054 0.940134 0.0250118 
3 1 0.523599 0.5 0.6411 0.973921 0.0249788 
6 1 0.523599 0.5 0.581252 0.104283 0.0265869 
5 1 0.523599 0.5 0.469885 0.362451 0.0267333 
10 1 0.523599 0.5 0.856578 0.501051 0.0313786 
7 1 0.523599 0.5 0.964392 0.541084 0.0311728 
ITEM: TIMESTEP
11500
ITEM: NUMBER OF ATOMS
10
ITEM: BOX BOUNDS pp pp ff
0.0000000000000000e+00 2.0000000000000000e+01
0.0000000000000000e+00 2.0000000000000000e+01
0.0000000000000000e+00 2.0000000000000000e+01
ITEM: ATOMS id type mass radius xs ys zs 
9 1 0.523599 0.5 0.432411 0.526549 0.0249804 
8 1 0.523599 0.5 0.650723 0.708284 0.0249804 
1 1 0.523599 0.5 0.589875 0.889517 0.0289207 
4 1 0.523599 0.5 0.626809 0.911703 0.0249738 
2 1 0.523599 0.5 0.41054 0.940134 0.0249824 
3 1 0.523599 0.5 0.6411 0.973921 0.0249803 
6 1 0.523599 0.5 0.581252 0.104283 0.0316864 
5 1 0.523599 0.5 0.469885 0.362451 0.0314753 
10 1 0.523599 0.5 0.856578 0.501051 0.0255844 
7 1 0.523599 0.5 0.964392 0.541084 0.0259107 
ITEM: TIMESTEP
12000
ITEM: NUMBER OF ATOMS
10
ITEM: BOX BOUNDS pp pp ff
0.0000000000000000e+00 2.0000000000000000e+01
0.0000000000000000e+00 2.0000000000000000e+01
0.0000000000000000e+00 2.0000000000000000e+01
ITEM: ATOMS id type mass radius xs ys zs 
9 1 0.523599 0.5 0.432411 0.526549 0.0249804 
8 1 0.523599 0.5 0.650723 0.708284 0.0249804 
1 1 0.523599 0.5 0.58863 0.888769 0.0257468 
4 1 0.523599 0.5 0.625732 0.911056 0.0249755 
2 1 0.523599 0.5 0.41054 0.940134 0.0249805 
3 1 0.523599 0.5 0.6411 0.973921 0.0249804 
6 1 0.523599 0.5 0.581252 0.104283 0.0248655 
5 1 0.523599 0.5 0.469885 0.362451 0.0251567 
10 1 0.523599 0.5 0.856578 0.501051 0.0250574 
7 1 0.523599 0.5 0.964392 0.541084 0.0248919 
ITEM: TIMESTEP
12500
ITEM: NUMBER OF ATOMS
10
ITEM: BOX BOUNDS pp pp ff
0.0000000000000000e+00 2.0000000000000000e+01
0.0000000000000000e+00 2.0000000000000000e+01
0.0000000000000000e+00 2.0000000000000000e+01
ITEM: ATOMS id type mass radius xs ys zs 
9 1 0.523599 0.5 0.432411 0.526549 0.0249804 
8 1 0.523599 0.5 0.650723 0.708284 0.0249804 
1 1 0.523599 0.5 0.586612 0.887557 0.0249718 
4 1 0.523599 0.5 0.623674 0.90982 0.0253194 
2 1 0.523599 0.5 0.41054 0.940134 0.0249804 
3 1 0.523599 0.5 0.6411 0.973921 0.0249804 
6 1 0.523599 0.5 0.581252 0.104283 0.0257991 
5 1 0.523599 0.5 0.469885 0.362451 0.0254827 
10 1 0.523599 0.5 0.856578 0.501051 0.0251842 
7 1 0.523599 0.5 0.964392 0.541084 0.0251362 
ITEM: TIMESTEP
13000
ITEM: NUMBER OF ATOMS
10
ITEM: BOX BOUNDS pp pp ff
0.0000000000000000e+00 2.0000000000000000e+01
0.0000000000000000e+00 2.0000000000000000e+01
0.0000000000000000e+00 2.0000000000000000e+01
ITEM: ATOMS id type mass radius xs ys zs 
9 1 0.523599 0.5 0.432411 0.526549 0.0249804 
8 1 0.523599 0.5 0.650723 0.708284 0.0249804 
1 1 0.523599 0.5 0.586831 0.887688 0.0249733 
4 1 0.523599 0.5 0.623937 0.909978 0.0249855 
2 1 0.523599 0.5 0.41054 0.940134 0.0249804 
3 1 0.523599 0.5 0.6411 0.973921 0.0249804 
6 1 0.523599 0.5 0.581252 0.104283 0.025125 
5 1 0.523599 0.5 0.469885 0.362451 0.0251774 
10 1 0.523599 0.5 0.856578 0.501051 0.0249824 
7 1 0.523599 0.5 0.964392 0.541084 0.0249844 
ITEM: TIMESTEP
13500
ITEM: NUMBER OF ATOMS
10
ITEM: BOX BOUNDS pp pp ff
0.0000000000000000e+00 2.0000000000000000e+01
0.0000000000000000e+00 2.0000000000000000e+01
0.0000000000000000e+00 2.0000000000000000e+01
ITEM: ATOMS id type mass radius xs ys zs 
9 1 0.523599 0.5 0.432411 0.526549 0.0249804 
8 1 0.523599 0.5 0.650723 0.708284 0.0249804 
1 1 0.523599 0.5 0.586865 0.887709 0.0249818 
4 1 0.523599 0.5 0.62397 0.909997 0.0249791 
2 1 0.523599 0.5 0.41054 0.940134 0.0249804 
3 1 0.523599 0.5 0.6411 0.973921 0.0249804 
6 1 0.523599 0.5 0.581252 0.104283 0.0249879 
5 1 0.523599 0.5 0.469885 0.362451 0.0249726 
10 1 0.523599 0.5 0.856578 0.501051 0.0249803 
7 1 0.523599 0.5 0.964392 0.541084 0.0249805 
ITEM: TIMESTEP
14000
ITEM: NUMBER OF ATOMS
10
ITEM: BOX BOUNDS pp pp ff
0.0000000000000000e+00 2.0000000000000000e+01
0.0000000000000000e+00 2.0000000000000000e+01
0.0000000000000000e+00 2.0000000000000000e+01
ITEM: ATOMS id type mass radius xs ys zs 
9 1 0.523599 0.5 0.432411 0.526549 0.0249804 
8 1 0.523599 0.5 0.650723 0.708284 0.0249804 
1 1 0.523599 0.5 0.586856 0.887703 0.0249801 
4 1 0.523599 0.5 0.623961 0.909992 0.0249807 
2 1 0.523599 0.5 0.41054 0.940134 0.0249804 
3 1 0.523599 0.5 0.6411 0.973921 0.0249804 
6 1 0.523599 0.5 0.581252 0.104283 0.0249807 
5 1 0.523599 0.5 0.469885 0.362451 0.0249802 
10 1 0.523599 0.5 0.856578 0.501051 0.0249804 
7 1 0.523599 0.5 0.964392 0.541084 0.0249804 
ITEM: TIMESTEP
14500
ITEM: NUMBER OF ATOMS
10
ITEM: BOX BOUNDS pp pp ff
0.0000000000000000e+00 2.0000000000000000e+01
0.0000000000000000e+00 2.0000000000000000e+01
0.0000000000000000e+00 2.0000000000000000e+01
ITEM: ATOMS id type mass radius xs ys zs 
9 1 0.523599 0.5 0.432411 0.526549 0.0249804 
8 1 0.523599 0.5 0.650723 0.708284 0.0249804 
1 1 0.523599 0.5 0.586858 0.887704 0.0249804 
4 1 0.523599 0.5 0.623963 0.909993 0.0249803 
2 1 0.523599 0.5 0.41054 0.940134 0.0249804 
3 1 0.523599 0.5 0.6411 0.973921 0.0249804 
6 1 0.523599 0.5 0.581252 0.104283 0.0249804 
5 1 0.523599 0.5 0.469885 0.362451 0.0249804 
10 1 0.523599 0.5 0.856578 0.501051 0.0249804 
7 1 0.523599 0.5 0.964392 0.541084 0.0249804 
ITEM: TIMESTEP
15000
ITEM: NUMBER OF ATOMS
10
ITEM: BOX BOUNDS pp pp ff
0.0000000000000000e+00 2.0000000000000000e+01
0.0000000000000000e+00 2.0000000000000000e+01
0.0000000000000000e+00 2.0000000000000000e+01
ITEM: ATOMS id type mass radius xs ys zs 
9 1 0.523599 0.5 0.432411 0.526549 0.0249804 
8 1 0.523599 0.5 0.650723 0.708284 0.0249804 
1 1 0.523599 0.5 0.586858 0.887704 0.0249804 
4 1 0.523599 0.5 0.623962 0.909993 0.0249804 
2 1 0.523599 0.5 0.41054 0.940134 0.0249804 
3 1 0.523599 0.5 0.6411 0.973921 0.0249804 
6 1 0.523599 0.5 0.581252 0.104283 0.0249804 
5 1 0.523599 0.5 0.469885 0.362451 0.0249804 
10 1 0.523599 0.5 0.856578 0.501051 0.0249804 
7 1 0.523599 0.5 0.964392 0.541084 0.0249804 
ITEM: TIMESTEP
15500
ITEM: NUMBER OF ATOMS
10
ITEM: BOX BOUNDS pp pp ff
0.0000000000000000e+00 2.0000000000000000e+01
0.0000000000000000e+00 2.0000000000000000e+01
0.0000000000000000e+00 2.0000000000000000e+01
ITEM: ATOMS id type mass radius xs ys zs 
9 1 0.523599 0.5 0.432411 0.526549 0.0249804 
8 1 0.523599 0.5 0.650723 0.708284 0.0249804 
1 1 0.523599 0.5 0.586858 0.887704 0.0249804 
4 1 0.523599 0.5 0.623962 0.909993 0.0249804 
2 1 0.523599 0.5 0.41054 0.940134 0.0249804 
3 1 0.523599 0.5 0.6411 0.973921 0.0249804 
6 1 0.523599 0.5 0.581252 0.104283 0.0249804 
5 1 0.523599 0.5 0.469885 0.362451 0.0249804 
10 1 0.523599 0.5 0.856578 0.501051 0.0249804 
7 1 0.523599 0.5 0.964392 0.541084 0.0249804 
ITEM: TIMESTEP
16000
ITEM: NUMBER OF ATOMS
10
ITEM: BOX BOUNDS pp pp ff
0.0000000000000000e+00 2.0000000000000000e+01
0.0000000000000000e+00 2.0000000000000000e+01
0.0000000000000000e+00 2.0000000000000000e+01
ITEM: ATOMS id type mass radius xs ys zs 
9 1 0.523599 0.5 0.432411 0.526549 0.0249804 
8 1 0.523599 0.5 0.650723 0.708284 0.0249804 
1 1 0.523599 0.5 0.586858 0.887704 0.0249804 
4 1 0.523599 0.5 0.623962 0.909993 0.0249804 
2 1 0.523599 0.5 0.41054 0.940134 0.0249804 
3 1 0.523599 0.5 0.6411 0.973921 0.0249804 
6 1 0.523599 0.5 0.581252 0.104283 0.0249804 
5 1 0.523599 0.5 0.469885 0.362451 0.0249804 
10 1 0.523599 0.5 0.856578 0.501051 0.0249804 
7 1 0.523599 0.5 0.964392 0.541084 0.0249804 
ITEM: TIMESTEP
16500
ITEM: NUMBER OF ATOMS
10
ITEM: BOX BOUNDS pp pp ff
0.0000000000000000e+00 2.0000000000000000e+01
0.0000000000000000e+00 2.0000000000000000e+01
0.0000000000000000e+00 2.0000000000000000e+01
ITEM: ATOMS id type mass radius xs ys zs 
9 1 0.523599 0.5 0.432411 0.526549 0.0249804 
8 1 0.523599 0.5 0.650723 0.708284 0.0249804 
1 1 0.523599 0.5 0.586858 0.887704 0.0249804 
4 1 0.523599 0.5 0.623962 0.909993 0.0249804 
2 1 0.523599 0.5 0.41054 0.940134 0.0249804 
3 1 0.523599 0.5 0.6411 0.973921 0.0249804 
6 1 0.523599 0.5 0.581252 0.104283 0.0249804 
5 1 0.523599 0.5 0.469885 0.362451 0.0249804 
10 1 0.523599 0.5 0.856578 0.501051 0.0249804 
7 1 0.523599 0.5 0.964392 0.541084 0.0249804 
ITEM: TIMESTEP
17000
ITEM: NUMBER OF ATOMS
10
ITEM: BOX BOUNDS pp pp ff
0.0000000000000000e+00 2.0000000000000000e+01
0.0000000000000000e+00 2.0000000000000000e+01
0.0000000000000000e+00 2.0000000000000000e+01
ITEM: ATOMS id type mass radius xs ys zs 
9 1 0.523599 0.5 0.432411 0.526549 0.0249804 
8 1 0.523599 0.5 0.650723 0.708284 0.0249804 
1 1 0.523599 0.5 0.586858 0.887704 0.0249804 
4 1 0.523599 0.5 0.623962 0.909993 0.0249804 
2 1 0.523599 0.5 0.41054 0.940134 0.0249804 
3 1 0.523599 0.5 0.6411 0.973921 0.0249804 
6 1 0.523599 0.5 0.581252 0.104283 0.0249804 
5 1 0.523599 0.5 0.469885 0.362451 0.0249804 
10 1 0.523599 0.5 0.856578 0.501051 0.0249804 
7 1 0.523599 0.5 0.964392 0.541084 0.0249804 
ITEM: TIMESTEP
17500
ITEM: NUMBER OF ATOMS
10
ITEM: BOX BOUNDS pp pp ff
0.0000000000000000e+00 2.0000000000000000e+01
0.0000000000000000e+00 2.0000000000000000e+01
0.0000000000000000e+00 2.0000000000000000e+01
ITEM: ATOMS id type mass radius xs ys zs 
9 1 0.523599 0.5 0.432411 0.526549 0.0249804 
8 1 0.523599 0.5 0.650723 0.708284 0.0249804 
1 1 0.523599 0.5 0.586858 0.887704 0.0249804 
4 1 0.523599 0.5 0.623962 0.909993 0.0249804 
2 1 0.523599 0.5 0.41054 0.940134 0.0249804 
3 1 0.523599 0.5 0.6411 0.973921 0.0249804 
6 1 0.523599 0.5 0.581252 0.104283 0.0249804 
5 1 0.523599 0.5 0.469885 0.362451 0.0249804 
10 1 0.523599 0.5 0.856578 0.501051 0.0249804 
7 1 0.523599 0.5 0.964392 0.541084 0.0249804 
ITEM: TIMESTEP
18000
ITEM: NUMBER OF ATOMS
10
ITEM: BOX BOUNDS pp pp ff
0.0000000000000000e+00 2.0000000000000000e+01
0.0000000000000000e+00 2.0000000000000000e+01
0.0000000000000000e+00 2.0000000000000000e+01
ITEM: ATOMS id type mass radius xs ys zs 
9 1 0.523599 0.5 0.432411 0.526549 0.0249804 
8 1 0.523599 0.5 0.650723 0.708284 0.0249804 
1 1 0.523599 0.5 0.586858 0.887704 0.0249804 
4 1 0.523599 0.5 0.623962 0.909993 0.0249804 
2 1 0.523599 0.5 0.41054 0.940134 0.0249804 
3 1 0.523599 0.5 0.6411 0.973921 0.0249804 
6 1 0.523599 0.5 0.581252 0.104283 0.0249804 
5 1 0.523599 0.5 0.469885 0.362451 0.0249804 
10 1 0.523599 0.5 0.856578 0.501051 0.0249804 
7 1 0.523599 0.5 0.964392 0.541084 0.0249804 
ITEM: TIMESTEP
18500
ITEM: NUMBER OF ATOMS
10
ITEM: BOX BOUNDS pp pp ff
0.0000000000000000e+00 2.0000000000000000e+01
0.0000000000000000e+00 2.0000000000000000e+01
0.0000000000000000e+00 2.0000000000000000e+01
ITEM: ATOMS id type mass radius xs ys zs 
9 1 0.523599 0.5 0.432411 0.526549 0.0249804 
8 1 0.523599 0.5 0.650723 0.708284 0.0249804 
1 1 0.523599 0.5 0.586858 0.887704 0.0249804 
4 1 0.523599 0.5 0.623962 0.909993 0.0249804 
2 1 0.523599 0.5 0.41054 0.940134 0.0249804 
3 1 0.523599 0.5 0.6411 0.973921 0.0249804 
6 1 0.523599 0.5 0.581252 0.104283 0.0249804 
5 1 0.523599 0.5 0.469885 0.362451 0.0249804 
10 1 0.523599 0.5 0.856578 0.501051 0.0249804 
7 1 0.523599 0.5 0.964392 0.541084 0.0249804 
ITEM: TIMESTEP
19000
ITEM: NUMBER OF ATOMS
10
ITEM: BOX BOUNDS pp pp ff
0.0000000000000000e+00 2.0000000000000000e+01
0.0000000000000000e+00 2.0000000000000000e+01
0.0000000000000000e+00 2.0000000000000000e+01
ITEM: ATOMS id type mass radius xs ys zs 
9 1 0.523599 0.5 0.432411 0.526549 0.0249804 
8 1 0.523599 0.5 0.650723 0.708284 0.0249804 
1 1 0.523599 0.5 0.586858 0.887704 0.0249804 
4 1 0.523599 0.5 0.623962 0.909993 0.0249804 
2 1 0.523599 0.5 0.41054 0.940134 0.0249804 
3 1 0.523599 0.5 0.6411 0.973921 0.0249804 
6 1 0.523599 0.5 0.581252 0.104283 0.0249804 
5 1 0.523599 0.5 0.469885 0.362451 0.0249804 
10 1 0.523599 0.5 0.856578 0.501051 0.0249804 
7 1 0.523599 0.5 0.964392 0.541084 0.0249804 
ITEM: TIMESTEP
19500
ITEM: NUMBER OF ATOMS
10
ITEM: BOX BOUNDS pp pp ff
0.0000000000000000e+00 2.0000000000000000e+01
0.0000000000000000e+00 2.0000000000000000e+01
0.0000000000000000e+00 2.0000000000000000e+01
ITEM: ATOMS id type mass radius xs ys zs 
9 1 0.523599 0.5 0.432411 0.526549 0.0249804 
8 1 0.523599 0.5 0.650723 0.708284 0.0249804 
1 1 0.523599 0.5 0.586858 0.887704 0.0249804 
4 1 0.523599 0.5 0.623962 0.909993 0.0249804 
2 1 0.523599 0.5 0.41054 0.940134 0.0249804 
3 1 0.523599 0.5 0.6411 0.973921 0.0249804 
6 1 0.523599 0.5 0.581252 0.104283 0.0249804 
5 1 0.523599 0.5 0.469885 0.362451 0.0249804 
10 1 0.523599 0.5 0.856578 0.501051 0.0249804 
7 1 0.523599 0.5 0.964392 0.541084 0.0249804 
ITEM: TIMESTEP
20000
ITEM: NUMBER OF ATOMS
10
ITEM: BOX BOUNDS pp pp ff
0.0000000000000000e+00 2.0000000000000000e+01
0.0000000000000000e+00 2.0000000000000000e+01
0.0000000000000000e+00 2.0000000000000000e+01
ITEM: ATOMS id type mass radius xs ys zs 
9 1 0.523599 0.5 0.432411 0.526549 0.0249804 
8 1 0.523599 0.5 0.650723 0.708284 0.0249804 
1 1 0.523599 0.5 0.586858 0.887704 0.0249804 
4 1 0.523599 0.5 0.623962 0.909993 0.0249804 
2 1 0.523599 0.5 0.41054 0.940134 0.0249804 
3 1 0.523599 0.5 0.6411 0.973921 0.0249804 
6 1 0.523599 0.5 0.581252 0.104283 0.0249804 
5 1 0.523599 0.5 0.469885 0.362451 0.0249804 
10 1 0.523599 0.5 0.856578 0.501051 0.0249804 
7 1 0.523599 0.5 0.964392 0.541084 0.0249804 
