LAMMPS (5 May 2020)
OMP_NUM_THREADS environment is not set. Defaulting to 1 thread. (src/comm.cpp:94)
  using 1 OpenMP thread(s) per MPI task
# pouring spheres into container box

units		lj
atom_style      sphere
boundary        f f f
dimension	3
comm_modify     vel yes

region          box block -10 10 -10 10 -10 10 units box
create_box      2 box
Created orthogonal box = (-10 -10 -10) to (10 10 10)
  1 by 1 by 1 MPI processor grid

pair_style	hybrid gran/hooke 4000.0 NULL 100.0 NULL 0.5 1
pair_coeff	* * gran/hooke

region          container block -6 6 -6 6 -6 6 units box
fix		container all wall/gran/region hooke/history 		4000.0 NULL 100.0 NULL 0.5 1 region container

neighbor	0.3 bin
neigh_modify	delay 0 every 1 check yes

fix             2 all nve/sphere
fix		3 all gravity 1.0 vector 0 0 -1

region          slab block -2 2 -2 2 -2 2 units box
fix             ins all pour 100 2 4767548 vol 0.4 10 	        diam one 1.0 region slab ignore
Particle insertion: 48 every 566 steps, 100 by step 1133

timestep	0.005

compute         1 all temp
compute_modify  1 dynamic/dof yes

compute         2 all temp/sphere
compute_modify  2 dynamic/dof yes

thermo		100
thermo_style	custom step atoms temp c_1 c_2 press
thermo_modify   lost ignore
compute_modify  thermo_temp dynamic/dof yes

dump		2 all image 100 image.*.jpg type type 		zoom 1.4 adiam 1.0 box no 0.0 axes yes 0.9 0.03
dump_modify	2 pad 5

run	        5000
Neighbor list info ...
  update every 1 steps, delay 0 steps, check yes
  max neighbors/atom: 2000, page size: 100000
  master list distance cutoff = 1.3
  ghost atom cutoff = 1.3
  binsize = 0.65, bins = 31 31 31
  1 neighbor lists, perpetual/occasional/extra = 1 0 0
  (1) pair gran/hooke, perpetual
      attributes: half, newton on, size
      pair build: half/size/bin/newton
      stencil: half/bin/3d/newton
      bin: standard
Per MPI rank memory allocation (min/avg/max) = 0.5861 | 0.5861 | 0.5861 Mbytes
Step Atoms Temp c_1 c_2 Press 
       0        0            0            0            0            0 
     100       30     0.803783     0.803783   0.39507978 0.0029137134 
     200       30    1.1967995    1.1967995    0.5882574 0.0043383984 
     300       30    1.2814686    1.2814686   0.62987441 0.0046453238 
     400       30   0.82043046   0.82043046   0.41050731 0.0029740604 
     500       30   0.76864192   0.76864192   0.38816336 0.0044954338 
     600       64   0.50841254   0.50841254   0.26231777 0.0068620331 
     700       64   0.57312354   0.57312354    0.2951111 0.0045133479 
     800       64   0.61999479   0.61999479   0.32020689 0.0055941605 
     900       64   0.50706975   0.50706975   0.27509238 0.0049740422 
    1000       64   0.44769017   0.44769017   0.24740753 0.0061199917 
    1100       64   0.46844082   0.46844082   0.25873583  0.012044524 
    1200       99   0.44186391   0.44186391   0.24318944 0.0093892402 
    1300       99   0.40702018   0.40702018   0.22265402 0.0095541674 
    1400       99   0.37891717   0.37891717   0.21347797 0.0085408457 
    1500       99   0.35363822   0.35363822   0.19918766 0.0094835919 
    1600       99   0.26581213   0.26581213   0.15443487 0.0045087726 
    1700      100   0.22133378   0.22133378   0.13024636 0.0033918178 
    1800      100   0.11313183   0.11313183  0.073422768 0.0065673656 
    1900      100  0.067554443  0.067554443  0.049276493 0.00091591989 
    2000      100   0.05957598   0.05957598  0.041443434 0.0011642273 
    2100      100   0.05995032   0.05995032  0.039525603 0.0012881104 
    2200      100  0.047354353  0.047354353  0.030588227 0.00055723789 
    2300      100  0.027550872  0.027550872  0.020864312 0.00051793984 
    2400      100   0.01945172   0.01945172  0.016284648 0.00036156393 
    2500      100  0.015115399  0.015115399  0.012327317 0.00043488147 
    2600      100  0.010957328  0.010957328 0.0087004214 0.00072028133 
    2700      100 0.0096099539 0.0096099539 0.0077094246 0.00017480703 
    2800      100 0.0081633449 0.0081633449 0.0065486879 0.0002444292 
    2900      100 0.0063615619 0.0063615619 0.0052229144 0.00018126469 
    3000      100 0.0045968356 0.0045968356 0.0038609188 0.00019600755 
    3100      100 0.0038042727 0.0038042727 0.0032528624 0.00017524396 
    3200      100 0.0036551437 0.0036551437 0.0030010581 0.00022005311 
    3300      100 0.0040041397 0.0040041397 0.0030704535 7.4989979e-05 
    3400      100 0.0023367444 0.0023367444 0.0020359062 0.0003791655 
    3500      100 0.0018133223 0.0018133223 0.0016404432 0.00064195751 
    3600      100 0.0013380839 0.0013380839 0.0012912837 4.7059574e-05 
    3700      100 0.0011652508 0.0011652508 0.0010870836 5.8966176e-05 
    3800      100 0.00092027651 0.00092027651 0.00087981113 7.1208586e-05 
    3900      100 0.00074452195 0.00074452195 0.00074495239 3.1928038e-05 
    4000      100 0.00070692867 0.00070692867 0.00069991552 4.382077e-05 
    4100      100 0.00056976667 0.00056976667 0.00053473672 8.0864467e-05 
    4200      100 0.00047555439 0.00047555439 0.00045517967 5.4765319e-05 
    4300      100 0.00041958717 0.00041958717 0.00041009689 6.4102623e-05 
    4400      100 0.00036152102 0.00036152102 0.00036082572 4.4562099e-05 
    4500      100 0.00036149047 0.00036149047 0.00035841905 4.5151632e-05 
    4600      100 0.00029418699 0.00029418699 0.00030394616 4.2660993e-05 
    4700      100 0.00029127751 0.00029127751 0.0002962079 3.7041066e-05 
    4800      100 0.00035184939 0.00035184939 0.00032509451 4.7274174e-05 
    4900      100 0.00090220018 0.00090220018 0.0005971363 1.1189404e-05 
    5000      100 0.00022799581 0.00022799581 0.00024733949 3.6664302e-06 
Loop time of 0.824545 on 1 procs for 5000 steps with 100 atoms

Performance: 2619627.910 tau/day, 6063.953 timesteps/s
94.3% CPU use with 1 MPI tasks x 1 OpenMP threads

MPI task timing breakdown:
Section |  min time  |  avg time  |  max time  |%varavg| %total
---------------------------------------------------------------
Pair    | 0.0175     | 0.0175     | 0.0175     |   0.0 |  2.12
Neigh   | 0.022216   | 0.022216   | 0.022216   |   0.0 |  2.69
Comm    | 0.0017573  | 0.0017573  | 0.0017573  |   0.0 |  0.21
Output  | 0.69035    | 0.69035    | 0.69035    |   0.0 | 83.73
Modify  | 0.084849   | 0.084849   | 0.084849   |   0.0 | 10.29
Other   |            | 0.007869   |            |       |  0.95

Nlocal:    100 ave 100 max 100 min
Histogram: 1 0 0 0 0 0 0 0 0 0
Nghost:    0 ave 0 max 0 min
Histogram: 1 0 0 0 0 0 0 0 0 0
Neighs:    162 ave 162 max 162 min
Histogram: 1 0 0 0 0 0 0 0 0 0

Total # of neighbors = 162
Ave neighs/atom = 1.62
Neighbor list builds = 273
Dangerous builds = 0

region          container delete
variable        theta equal (step-5000)*(4.0*PI/5000)
region          container block -6 6 -6 6 -6 6 units box                 rotate v_theta 0 0 0 0 0 1
run	        5000
Per MPI rank memory allocation (min/avg/max) = 6.088 | 6.088 | 6.088 Mbytes
Step Atoms Temp c_1 c_2 Press 
    5000      100 0.00022799581 0.00022799581 0.00024733949 3.5937199e-06 
    5100      100   0.66752886   0.66752886   0.35931334  0.013427287 
    5200      100   0.71162851   0.71162851    0.3827571  0.010829938 
    5300      100   0.78020488   0.78020488   0.41033312  0.010570734 
    5400      100   0.81349849   0.81349849   0.42059944  0.013070174 
    5500      100   0.86004936   0.86004936   0.44267793  0.013353651 
    5600      100   0.91323789   0.91323789   0.46954019    0.0141712 
    5700      100   0.97645646   0.97645646   0.49781399   0.01416718 
    5800      100    1.0554177    1.0554177   0.53719636   0.01797586 
    5900      100     1.109017     1.109017   0.56299493  0.016907698 
    6000      100    1.1293928    1.1293928   0.57278777  0.019886677 
    6100      100    1.1471568    1.1471568   0.58027588   0.01980068 
    6200      100    1.1712677    1.1712677   0.58938838  0.021296375 
    6300      100    1.2090699    1.2090699   0.60748177   0.01979709 
    6400      100     1.239234     1.239234   0.62142434  0.023059661 
    6500      100     1.244536     1.244536   0.62359742  0.019844149 
    6600      100    1.2472982    1.2472982    0.6254345   0.01963077 
    6700      100    1.2516807    1.2516807   0.62856772  0.020167906 
    6800      100    1.2478841    1.2478841   0.62579968  0.023039474 
    6900      100    1.2573743    1.2573743   0.62968049  0.021162991 
    7000      100    1.2622512    1.2622512   0.63177043   0.02268044 
    7100      100    1.2723581    1.2723581   0.63652293  0.021313988 
    7200      100    1.2759121    1.2759121   0.63848859   0.02262632 
    7300      100     1.282671     1.282671   0.64106415  0.021636273 
    7400      100    1.2823073    1.2823073   0.64120684  0.021921412 
    7500      100    1.2821414    1.2821414   0.64087946  0.021602687 
    7600      100    1.2872527    1.2872527   0.64341995   0.02197854 
    7700      100      1.28813      1.28813   0.64395109  0.021912619 
    7800      100    1.2882149    1.2882149    0.6441262   0.02242659 
    7900      100    1.2907576    1.2907576   0.64559776  0.022119721 
    8000      100    1.2938849    1.2938849   0.64702294  0.022137105 
    8100      100     1.295517     1.295517   0.64755398  0.022981274 
    8200      100    1.2967747    1.2967747   0.64811451  0.022383023 
    8300      100    1.2964659    1.2964659    0.6475792  0.022421641 
    8400      100    1.2988271    1.2988271   0.64864849  0.022208501 
    8500      100    1.3008171    1.3008171   0.64954561  0.022612929 
    8600      100    1.3055713    1.3055713   0.65192227  0.024256739 
    8700      100    1.3048998    1.3048998   0.65161258  0.024140358 
    8800      100    1.3063198    1.3063198    0.6524899  0.024270108 
    8900      100    1.3049526    1.3049526   0.65165691  0.024835255 
    9000      100    1.3056656    1.3056656   0.65202837   0.02533447 
    9100      100    1.3072985    1.3072985   0.65276907  0.025032896 
    9200      100    1.3085556    1.3085556   0.65344856  0.025261928 
    9300      100    1.3083871    1.3083871   0.65349792  0.025184252 
    9400      100     1.309321     1.309321    0.6538578  0.026577386 
    9500      100    1.3083251    1.3083251   0.65331676  0.025272364 
    9600      100    1.3091139    1.3091139   0.65369759  0.025390266 
    9700      100    1.3095302    1.3095302    0.6539208  0.025349488 
    9800      100    1.3099714    1.3099714   0.65414951  0.025099724 
    9900      100    1.3116117    1.3116117   0.65493703  0.024419225 
   10000      100     1.313222     1.313222   0.65571967  0.023488236 
Loop time of 1.49302 on 1 procs for 5000 steps with 100 atoms

Performance: 1446728.585 tau/day, 3348.909 timesteps/s
95.2% CPU use with 1 MPI tasks x 1 OpenMP threads

MPI task timing breakdown:
Section |  min time  |  avg time  |  max time  |%varavg| %total
---------------------------------------------------------------
Pair    | 0.093882   | 0.093882   | 0.093882   |   0.0 |  6.29
Neigh   | 0.089824   | 0.089824   | 0.089824   |   0.0 |  6.02
Comm    | 0.0045166  | 0.0045166  | 0.0045166  |   0.0 |  0.30
Output  | 0.87288    | 0.87288    | 0.87288    |   0.0 | 58.46
Modify  | 0.41463    | 0.41463    | 0.41463    |   0.0 | 27.77
Other   |            | 0.01729    |            |       |  1.16

Nlocal:    100 ave 100 max 100 min
Histogram: 1 0 0 0 0 0 0 0 0 0
Nghost:    0 ave 0 max 0 min
Histogram: 1 0 0 0 0 0 0 0 0 0
Neighs:    198 ave 198 max 198 min
Histogram: 1 0 0 0 0 0 0 0 0 0

Total # of neighbors = 198
Ave neighs/atom = 1.98
Neighbor list builds = 626
Dangerous builds = 0

region          container delete
region          container block -6 6 -6 6 -6 6 units box
run             5000
Per MPI rank memory allocation (min/avg/max) = 6.088 | 6.088 | 6.088 Mbytes
Step Atoms Temp c_1 c_2 Press 
   10000      100     1.313222     1.313222   0.65571967  0.023517343 
   10100      100   0.26998194   0.26998194   0.15698648 0.0075685346 
   10200      100   0.14361278   0.14361278  0.098446306 0.0040434942 
   10300      100  0.094387437  0.094387437  0.073234638 0.0034038621 
   10400      100  0.069124301  0.069124301  0.056947663 0.0028480144 
   10500      100  0.044819217  0.044819217  0.038952894 0.00049926019 
   10600      100  0.030525953  0.030525953  0.028235639 0.0010924418 
   10700      100  0.023135894  0.023135894  0.022398153 0.00045393684 
   10800      100   0.01800579   0.01800579  0.018210007 0.0010482309 
   10900      100  0.013147553  0.013147553  0.014508852 0.00030320556 
   11000      100  0.011823923  0.011823923  0.013174819 0.00085906261 
   11100      100   0.01014684   0.01014684  0.011626963 0.00039900926 
   11200      100 0.0078004149 0.0078004149 0.0087530646 0.0011762052 
   11300      100 0.0059280759 0.0059280759 0.0062743729 0.00081562078 
   11400      100 0.0038501745 0.0038501745 0.0042722284 0.00014526773 
   11500      100 0.0033415534 0.0033415534 0.0038803074 7.1432551e-05 
   11600      100 0.0027359089 0.0027359089 0.0030263642 3.3856873e-05 
   11700      100 0.0023684963 0.0023684963 0.0026855044 0.00012574385 
   11800      100 0.0021765877 0.0021765877 0.0025155797 2.6935273e-05 
   11900      100 0.0019360859 0.0019360859 0.0023286797 0.00015335055 
   12000      100 0.0016495751 0.0016495751 0.0020619647 7.3173548e-05 
   12100      100 0.0013650628 0.0013650628 0.0018282787 1.821875e-05 
   12200      100 0.0012636501 0.0012636501 0.0017077811 0.00017022439 
   12300      100 0.0011964265 0.0011964265 0.0016389747 1.4714411e-05 
   12400      100 0.0010418084 0.0010418084 0.0014551367 2.7099811e-05 
   12500      100 0.0010279802 0.0010279802 0.0014154107 9.2564506e-05 
   12600      100 0.0010112839 0.0010112839 0.0013982843 1.266833e-05 
   12700      100 0.00096804248 0.00096804248 0.0013513684 2.3279478e-05 
   12800      100 0.00089872765 0.00089872765 0.0012890779 1.4216543e-05 
   12900      100 0.00088085409 0.00088085409 0.0012638091 1.0900569e-05 
   13000      100 0.00084473191 0.00084473191 0.0012257422 3.8185937e-06 
   13100      100 0.00079272312 0.00079272312 0.0011844631 1.0108863e-05 
   13200      100 0.00077423706 0.00077423706 0.0011693309 1.0014528e-05 
   13300      100 0.00075512299 0.00075512299 0.0011455957 5.9940373e-05 
   13400      100 0.00074485665 0.00074485665 0.0011374094 5.9581128e-05 
   13500      100 0.00066444504 0.00066444504 0.00093267872 1.4333228e-05 
   13600      100 0.00058217002 0.00058217002 0.0008637676 7.204354e-06 
   13700      100 0.00056768997 0.00056768997 0.00084289926 2.1022963e-05 
   13800      100 0.00052456065 0.00052456065 0.00080722378 1.9519098e-05 
   13900      100 0.0004716559 0.0004716559 0.00075689884 5.8367418e-06 
   14000      100 0.00042382088 0.00042382088 0.00070338607 4.3292008e-06 
   14100      100 0.00039708224 0.00039708224 0.00068112578 4.9138927e-06 
   14200      100 0.00039304278 0.00039304278 0.00067368155 4.8639044e-06 
   14300      100 0.00039154146 0.00039154146 0.00067116292 4.8453255e-06 
   14400      100 0.00039058426 0.00039058426 0.00065947123 4.8334802e-06 
   14500      100 0.00038704512 0.00038704512 0.00065647844 4.7896834e-06 
   14600      100 0.00038174531 0.00038174531 0.00064563719 0.00011577216 
   14700      100 0.00036420258 0.00036420258 0.00063113669 4.4508691e-06 
   14800      100 0.00032535709 0.00032535709 0.00059407049 5.1594458e-05 
   14900      100 0.00031118234 0.00031118234 0.00057958796 7.1630095e-06 
   15000      100 0.0003018234 0.0003018234 0.00055431514 1.7813852e-05 
Loop time of 0.999422 on 1 procs for 5000 steps with 100 atoms

Performance: 2161249.557 tau/day, 5002.892 timesteps/s
96.6% CPU use with 1 MPI tasks x 1 OpenMP threads

MPI task timing breakdown:
Section |  min time  |  avg time  |  max time  |%varavg| %total
---------------------------------------------------------------
Pair    | 0.020451   | 0.020451   | 0.020451   |   0.0 |  2.05
Neigh   | 0.012137   | 0.012137   | 0.012137   |   0.0 |  1.21
Comm    | 0.0023542  | 0.0023542  | 0.0023542  |   0.0 |  0.24
Output  | 0.83459    | 0.83459    | 0.83459    |   0.0 | 83.51
Modify  | 0.11928    | 0.11928    | 0.11928    |   0.0 | 11.94
Other   |            | 0.01061    |            |       |  1.06

Nlocal:    100 ave 100 max 100 min
Histogram: 1 0 0 0 0 0 0 0 0 0
Nghost:    0 ave 0 max 0 min
Histogram: 1 0 0 0 0 0 0 0 0 0
Neighs:    180 ave 180 max 180 min
Histogram: 1 0 0 0 0 0 0 0 0 0

Total # of neighbors = 180
Ave neighs/atom = 1.8
Neighbor list builds = 84
Dangerous builds = 0

region          container delete
variable        theta equal (step-15000)*(4.0*PI/5000)
region          container block -6 6 -6 6 -6 6 units box                 rotate v_theta 0 0 0 1 1 1
run	        5000
Per MPI rank memory allocation (min/avg/max) = 6.088 | 6.088 | 6.088 Mbytes
Step Atoms Temp c_1 c_2 Press 
   15000      100 0.0003018234 0.0003018234 0.00055431514 1.7150549e-05 
   15100      100    1.1275029    1.1275029   0.69404657  0.015657214 
   15200      100    1.1865851    1.1865851   0.73000855  0.016346027 
   15300      100    1.2454355    1.2454355   0.78148763  0.017625985 
   15400      100    1.5654615    1.5654615   0.96648452  0.026703812 
   15500      100    1.7455251    1.7455251    1.0636036  0.026887465 
   15600      100    2.0197645    2.0197645    1.1890014   0.02951999 
   15700      100    2.2065969    2.2065969    1.2578506  0.036281442 
   15800      100    2.3545807    2.3545807    1.3379457  0.035986187 
   15900      100    2.3154974    2.3154974    1.3136688  0.033011091 
   16000      100    2.4060996    2.4060996    1.3608105  0.033486057 
   16100      100    2.4692036    2.4692036    1.3834717  0.036671718 
   16200      100    2.4749126    2.4749126    1.3720358  0.033449154 
   16300      100    2.7262715    2.7262715    1.4892325  0.039232608 
   16400      100    2.7422584    2.7422584    1.4941149  0.036436582 
   16500      100    2.7000888    2.7000888    1.4738833  0.034635933 
   16600      100     2.905107     2.905107    1.5736969   0.04200155 
   16700      100    3.0089514    3.0089514    1.6144964  0.038811905 
   16800      100    3.1109138    3.1109138    1.6633976  0.041837489 
   16900      100     3.410835     3.410835    1.8167651  0.042849154 
   17000      100    3.5217378    3.5217378    1.8637977   0.04841805 
   17100      100    3.4828194    3.4828194     1.848266  0.051556531 
   17200      100    3.5994866    3.5994866    1.9106851  0.049149466 
   17300      100    3.5805012    3.5805012    1.8979032  0.054543927 
   17400      100    3.6056416    3.6056416    1.9073207  0.049317864 
   17500      100    3.7173882    3.7173882    1.9565528  0.059922932 
   17600      100    3.6447116    3.6447116    1.9411073  0.051355837 
   17700      100    3.3790231    3.3790231    1.8181899  0.050593304 
   17800      100    3.4350896    3.4350896     1.853037   0.04792271 
   17900      100    3.3783433    3.3783433    1.8124973  0.056215256 
   18000      100    3.3141085    3.3141085     1.782075  0.047870745 
   18100      100    3.5076269    3.5076269    1.8795034  0.045206784 
   18200      100    3.4628543    3.4628543    1.8830258  0.047923621 
   18300      100    3.3899066    3.3899066    1.8581881  0.045799017 
   18400      100    3.5033104    3.5033104    1.9215817  0.046981023 
   18500      100    3.5670121    3.5670121    1.9532341  0.052866643 
   18600      100    3.4838985    3.4838985    1.9116787  0.047180972 
   18700      100    3.6593785    3.6593785    2.0063633  0.054412201 
   18800      100    3.6326815    3.6326815    2.0046845   0.04754885 
   18900      100    3.6923582    3.6923582    2.0093693  0.054310127 
   19000      100    3.5383818    3.5383818    1.9011526  0.052260557 
   19100      100    3.8295264    3.8295264    2.0443436  0.050070128 
   19200      100    3.6758009    3.6758009    1.9750816    0.0480012 
   19300      100    3.9768651    3.9768651    2.1342183  0.052961558 
   19400      100    3.8833175    3.8833175    2.0822814  0.053820924 
   19500      100    4.1038145    4.1038145    2.1936752  0.053838855 
   19600      100    3.9520623    3.9520623    2.1216566  0.054829063 
   19700      100    4.0450998    4.0450998    2.1660323  0.059284343 
   19800      100    3.8047678    3.8047678      2.02997  0.050372015 
   19900      100    3.8219252    3.8219252    2.0552426  0.051641918 
   20000      100    3.8621887    3.8621887    2.0864824  0.051321387 
Loop time of 1.28812 on 1 procs for 5000 steps with 100 atoms

Performance: 1676859.639 tau/day, 3881.620 timesteps/s
99.2% CPU use with 1 MPI tasks x 1 OpenMP threads

MPI task timing breakdown:
Section |  min time  |  avg time  |  max time  |%varavg| %total
---------------------------------------------------------------
Pair    | 0.033614   | 0.033614   | 0.033614   |   0.0 |  2.61
Neigh   | 0.10944    | 0.10944    | 0.10944    |   0.0 |  8.50
Comm    | 0.0038748  | 0.0038748  | 0.0038748  |   0.0 |  0.30
Output  | 0.82028    | 0.82028    | 0.82028    |   0.0 | 63.68
Modify  | 0.30728    | 0.30728    | 0.30728    |   0.0 | 23.85
Other   |            | 0.01364    |            |       |  1.06

Nlocal:    100 ave 100 max 100 min
Histogram: 1 0 0 0 0 0 0 0 0 0
Nghost:    0 ave 0 max 0 min
Histogram: 1 0 0 0 0 0 0 0 0 0
Neighs:    149 ave 149 max 149 min
Histogram: 1 0 0 0 0 0 0 0 0 0

Total # of neighbors = 149
Ave neighs/atom = 1.49
Neighbor list builds = 923
Dangerous builds = 0

region          container delete
region          container block -6 6 -6 6 -6 6 units box
run             5000
Per MPI rank memory allocation (min/avg/max) = 6.088 | 6.088 | 6.088 Mbytes
Step Atoms Temp c_1 c_2 Press 
   20000      100    3.8621887    3.8621887    2.0864824  0.050714652 
   20100      100    1.2457643    1.2457643   0.76967424  0.016184348 
   20200      100   0.97679912   0.97679912   0.62207286  0.012451062 
   20300      100   0.91865242   0.91865242   0.57808597  0.011305245 
   20400      100   0.87977892   0.87977892   0.53887531  0.010968678 
   20500      100   0.95079335   0.95079335   0.56938574   0.01184935 
   20600      100     1.042519     1.042519    0.6082563  0.016166902 
   20700      100    1.0194516    1.0194516   0.59215641  0.018170787 
   20800      100   0.90932856   0.90932856   0.52912441  0.019133133 
   20900      100   0.83570165   0.83570165   0.49112685  0.017667356 
   21000      100   0.59102808   0.59102808   0.35891589  0.012729904 
   21100      100   0.30811732   0.30811732   0.20914649 0.0066350517 
   21200      100   0.19942933   0.19942933   0.14367389 0.0022506113 
   21300      100   0.15493357   0.15493357   0.10904396 0.0031069546 
   21400      100   0.11842492   0.11842492  0.080279427 0.0046499294 
   21500      100  0.081392163  0.081392163  0.058059799 0.0022137114 
   21600      100  0.041765604  0.041765604  0.035556248 0.00077909515 
   21700      100  0.032929415  0.032929415  0.027111635 0.00049059704 
   21800      100  0.015226681  0.015226681  0.014439392 0.00048974926 
   21900      100  0.016399821  0.016399821  0.014432147 0.00060858266 
   22000      100  0.011716522  0.011716522  0.010771608 0.0003025407 
   22100      100  0.013718106  0.013718106  0.011127159 0.0004349287 
   22200      100 0.0090327094 0.0090327094 0.0082740042 0.00020279727 
   22300      100  0.007630481  0.007630481 0.0067258454 0.0001583334 
   22400      100 0.0061367708 0.0061367708 0.0056887026 0.0008696089 
   22500      100 0.0053048484 0.0053048484 0.0049757664 0.0004447456 
   22600      100 0.0050220674 0.0050220674 0.0046718689 0.00011867541 
   22700      100 0.0058974364 0.0058974364 0.0049027435 0.00013228548 
   22800      100 0.0033030576 0.0033030576 0.0032097274 0.00034570762 
   22900      100 0.0025945758 0.0025945758 0.0025268957 6.8552287e-05 
   23000      100  0.002449707  0.002449707 0.0024054011 0.00016936867 
   23100      100 0.0022849703 0.0022849703 0.0022858676 6.9560671e-05 
   23200      100 0.0021532699 0.0021532699 0.0021319369 0.00015873075 
   23300      100 0.0021308428 0.0021308428 0.0021160475 7.5614566e-05 
   23400      100 0.0020411884 0.0020411884 0.0020003729 0.00015569388 
   23500      100 0.0020295485 0.0020295485 0.0019735361 5.3243616e-05 
   23600      100 0.0019698483 0.0019698483 0.0019365813 5.9239807e-05 
   23700      100 0.0021861967 0.0021861967 0.0020640133 5.3594214e-05 
   23800      100 0.0019261254 0.0019261254 0.0017847984  4.52428e-05 
   23900      100  0.001363826  0.001363826 0.0013915682 3.9251811e-05 
   24000      100  0.001291813  0.001291813 0.0013385351 4.5700172e-05 
   24100      100 0.0010650322 0.0010650322  0.001112294 0.00013752261 
   24200      100 0.00096842145 0.00096842145 0.0010141578 0.00018581006 
   24300      100 0.0009027326 0.0009027326 0.00095463788 3.3025994e-05 
   24400      100 0.00088095109 0.00088095109 0.00093791151 3.4916632e-05 
   24500      100 0.00083289207 0.00083289207 0.0008935341 3.2118607e-05 
   24600      100 0.00079581967 0.00079581967 0.0008569336 3.4936359e-05 
   24700      100 0.00071081304 0.00071081304 0.00078004019 3.0607761e-05 
   24800      100 0.00067385486 0.00067385486 0.00073220957 3.0150342e-05 
   24900      100 0.00066674972 0.00066674972 0.00070464708 3.0062353e-05 
   25000      100 0.00063081179 0.00063081179 0.00066003764 0.00011556938 
Loop time of 0.934416 on 1 procs for 5000 steps with 100 atoms

Performance: 2311604.783 tau/day, 5350.937 timesteps/s
98.8% CPU use with 1 MPI tasks x 1 OpenMP threads

MPI task timing breakdown:
Section |  min time  |  avg time  |  max time  |%varavg| %total
---------------------------------------------------------------
Pair    | 0.019741   | 0.019741   | 0.019741   |   0.0 |  2.11
Neigh   | 0.032623   | 0.032623   | 0.032623   |   0.0 |  3.49
Comm    | 0.002112   | 0.002112   | 0.002112   |   0.0 |  0.23
Output  | 0.7707     | 0.7707     | 0.7707     |   0.0 | 82.48
Modify  | 0.099675   | 0.099675   | 0.099675   |   0.0 | 10.67
Other   |            | 0.009563   |            |       |  1.02

Nlocal:    100 ave 100 max 100 min
Histogram: 1 0 0 0 0 0 0 0 0 0
Nghost:    0 ave 0 max 0 min
Histogram: 1 0 0 0 0 0 0 0 0 0
Neighs:    158 ave 158 max 158 min
Histogram: 1 0 0 0 0 0 0 0 0 0

Total # of neighbors = 158
Ave neighs/atom = 1.58
Neighbor list builds = 292
Dangerous builds = 0
Total wall time: 0:00:05
