LAMMPS (5 May 2020)
OMP_NUM_THREADS environment is not set. Defaulting to 1 thread. (src/comm.cpp:94)
  using 1 OpenMP thread(s) per MPI task
# pouring spheres into container box

units		lj
atom_style      sphere
boundary        f f f
dimension	3
comm_modify     vel yes

region          box block -10 10 -10 10 -10 10 units box
create_box      2 box
Created orthogonal box = (-10 -10 -10) to (10 10 10)
  1 by 1 by 1 MPI processor grid

pair_style	hybrid gran/hooke 4000.0 NULL 100.0 NULL 0.5 1
pair_coeff	* * gran/hooke

region          container block -6 6 -6 6 -6 6 units box
fix		container all wall/gran/region hooke/history 		4000.0 NULL 100.0 NULL 0.5 1 region container

neighbor	0.3 bin
neigh_modify	delay 0 every 1 check yes

fix             2 all nve/sphere
fix		3 all gravity 1.0 vector 0 0 -1

region          slab block -2 2 -2 2 -2 2 units box
fix             ins all pour 100 2 4767548 vol 0.4 10 	        diam one 1.0 region slab ignore
Particle insertion: 48 every 566 steps, 100 by step 1133

timestep	0.005

compute         1 all temp
compute_modify  1 dynamic/dof yes

compute         2 all temp/sphere
compute_modify  2 dynamic/dof yes

thermo		100
thermo_style	custom step atoms temp c_1 c_2 press
thermo_modify   lost ignore
compute_modify  thermo_temp dynamic/dof yes

dump		2 all image 100 image.*.jpg type type 		zoom 1.4 adiam 1.0 box no 0.0 axes yes 0.9 0.03
dump_modify	2 pad 5

run	        5000
Neighbor list info ...
  update every 1 steps, delay 0 steps, check yes
  max neighbors/atom: 2000, page size: 100000
  master list distance cutoff = 1.3
  ghost atom cutoff = 1.3
  binsize = 0.65, bins = 31 31 31
  1 neighbor lists, perpetual/occasional/extra = 1 0 0
  (1) pair gran/hooke, perpetual
      attributes: half, newton on, size
      pair build: half/size/bin/newton
      stencil: half/bin/3d/newton
      bin: standard
Per MPI rank memory allocation (min/avg/max) = 0.5861 | 0.5861 | 0.5861 Mbytes
Step Atoms Temp c_1 c_2 Press 
       0        0            0            0            0            0 
     100       30     0.803783     0.803783   0.39507978 0.0029137134 
     200       30    1.1967995    1.1967995    0.5882574 0.0043383984 
     300       30    1.2814686    1.2814686   0.62987441 0.0046453238 
     400       30   0.82043046   0.82043046   0.41050731 0.0029740604 
     500       30   0.76864192   0.76864192   0.38816336 0.0044954338 
     600       64   0.50841254   0.50841254   0.26231777 0.0068620331 
     700       64   0.57312354   0.57312354    0.2951111 0.0045133479 
     800       64   0.61999479   0.61999479   0.32020689 0.0055941605 
     900       64   0.50706975   0.50706975   0.27509238 0.0049740422 
    1000       64   0.44769017   0.44769017   0.24740753 0.0061199917 
    1100       64   0.46844082   0.46844082   0.25873583  0.012044524 
    1200       99   0.44186391   0.44186391   0.24318944 0.0093892402 
    1300       99   0.40702018   0.40702018   0.22265402 0.0095541674 
    1400       99   0.37891717   0.37891717   0.21347797 0.0085408457 
    1500       99   0.35363822   0.35363822   0.19918766 0.0094835919 
    1600       99   0.26581213   0.26581213   0.15443487 0.0045087726 
    1700      100   0.22133378   0.22133378   0.13024636 0.0033918178 
    1800      100   0.11313183   0.11313183  0.073422768 0.0065673656 
    1900      100  0.067554443  0.067554443  0.049276493 0.00091591989 
    2000      100   0.05957598   0.05957598  0.041443434 0.0011642273 
    2100      100   0.05995032   0.05995032  0.039525603 0.0012881104 
    2200      100  0.047354353  0.047354353  0.030588227 0.00055723789 
    2300      100  0.027550872  0.027550872  0.020864312 0.00051793984 
    2400      100   0.01945172   0.01945172  0.016284648 0.00036156393 
    2500      100  0.015115399  0.015115399  0.012327317 0.00043488147 
    2600      100  0.010957328  0.010957328 0.0087004214 0.00072028133 
    2700      100 0.0096099539 0.0096099539 0.0077094246 0.00017480703 
    2800      100 0.0081633449 0.0081633449 0.0065486879 0.0002444292 
    2900      100 0.0063615619 0.0063615619 0.0052229144 0.00018126469 
    3000      100 0.0045968356 0.0045968356 0.0038609188 0.00019600755 
    3100      100 0.0038042727 0.0038042727 0.0032528624 0.00017524396 
    3200      100 0.0036551437 0.0036551437 0.0030010581 0.00022005311 
    3300      100 0.0040041397 0.0040041397 0.0030704535 7.4989979e-05 
    3400      100 0.0023367444 0.0023367444 0.0020359062 0.0003791655 
    3500      100 0.0018133223 0.0018133223 0.0016404432 0.00064195751 
    3600      100 0.0013380839 0.0013380839 0.0012912837 4.7059574e-05 
    3700      100 0.0011652508 0.0011652508 0.0010870836 5.8966176e-05 
    3800      100 0.00092027651 0.00092027651 0.00087981113 7.1208586e-05 
    3900      100 0.00074452195 0.00074452195 0.00074495239 3.1928038e-05 
    4000      100 0.00070692867 0.00070692867 0.00069991552 4.382077e-05 
    4100      100 0.00056976667 0.00056976667 0.00053473672 8.0864467e-05 
    4200      100 0.00047555439 0.00047555439 0.00045517967 5.4765319e-05 
    4300      100 0.00041958717 0.00041958717 0.00041009689 6.4102623e-05 
    4400      100 0.00036152102 0.00036152102 0.00036082572 4.4562099e-05 
    4500      100 0.00036149047 0.00036149047 0.00035841905 4.5151632e-05 
    4600      100 0.00029418699 0.00029418699 0.00030394616 4.2660993e-05 
    4700      100 0.00029127751 0.00029127751 0.0002962079 3.7041066e-05 
    4800      100 0.00035184939 0.00035184939 0.00032509451 4.7274174e-05 
    4900      100 0.00090220018 0.00090220018 0.0005971363 1.1189404e-05 
    5000      100 0.00022799581 0.00022799581 0.00024733949 3.6664302e-06 
Loop time of 1.21176 on 1 procs for 5000 steps with 100 atoms

Performance: 1782530.512 tau/day, 4126.228 timesteps/s
88.3% CPU use with 1 MPI tasks x 1 OpenMP threads

MPI task timing breakdown:
Section |  min time  |  avg time  |  max time  |%varavg| %total
---------------------------------------------------------------
Pair    | 0.028507   | 0.028507   | 0.028507   |   0.0 |  2.35
Neigh   | 0.041778   | 0.041778   | 0.041778   |   0.0 |  3.45
Comm    | 0.0027992  | 0.0027992  | 0.0027992  |   0.0 |  0.23
Output  | 1.0178     | 1.0178     | 1.0178     |   0.0 | 83.99
Modify  | 0.10887    | 0.10887    | 0.10887    |   0.0 |  8.98
Other   |            | 0.01202    |            |       |  0.99

Nlocal:    100 ave 100 max 100 min
Histogram: 1 0 0 0 0 0 0 0 0 0
Nghost:    0 ave 0 max 0 min
Histogram: 1 0 0 0 0 0 0 0 0 0
Neighs:    162 ave 162 max 162 min
Histogram: 1 0 0 0 0 0 0 0 0 0

Total # of neighbors = 162
Ave neighs/atom = 1.62
Neighbor list builds = 273
Dangerous builds = 0
Total wall time: 0:00:01
