ITEM: TIMESTEP
0
ITEM: NUMBER OF ATOMS
0
ITEM: BOX BOUNDS ss ss ff
-1.0000000000000000e-02 1.0001000000000001e+02
-1.0000000000000000e-02 1.0001000000000001e+02
0.0000000000000000e+00 1.0000000000000000e+02
ITEM: ATOMS id type mass radius xs ys zs 
