ITEM: TIMESTEP
12750
ITEM: NUMBER OF ATOMS
4000
ITEM: BOX BOUNDS pp pp pp
2.5163721535311914e+00 3.7983627846468238e+01
-2.6055024817045549e+00 4.3105502481703709e+01
-6.4019247344567032e-01 4.1140192473445907e+01
ITEM: ATOMS id type xs ys zs c_csym c_peratom fx fy fz 
8 1 0.05898 0.0810744 0.0546431 1.91786 -3.28827 0.155311 0.855538 -0.280871 
405 1 0.0535899 0.0456609 0.105629 1.08397 -3.25891 0.535288 -0.331208 -0.0820725 
7 1 0.109787 0.0350105 0.0598857 1.35115 -3.2837 -0.013481 0.7288 -0.201553 
406 1 0.113531 0.0872604 0.103913 1.03712 -3.31715 -0.316254 -0.524484 0.154644 
3 1 0.0417442 0.996617 0.057287 7.17779 -3.25518 0.56227 0.176889 -0.303696 
12 1 0.170537 0.0778536 0.0606381 1.7296 -3.29132 -0.177316 0.0435201 -0.909068 
11 1 0.220664 0.0282348 0.0555048 0.31987 -3.2361 0.571749 0.0281958 -0.433445 
409 1 0.169562 0.03261 0.103362 0.819044 -3.27755 -0.646154 0.130876 0.492403 
410 1 0.227403 0.0712912 0.100139 0.644866 -3.26036 0.12686 0.618872 0.488005 
16 1 0.281543 0.0643165 0.054602 0.678435 -3.34174 0.344297 0.0177574 -0.27537 
15 1 0.334888 0.014165 0.0536071 0.492883 -3.36427 -0.115062 0.0867414 0.311351 
413 1 0.274111 0.0216311 0.104506 1.10061 -3.30259 0.615269 0.111482 -0.313443 
414 1 0.341421 0.0645585 0.0991114 0.564265 -3.36521 0.0233014 -0.292968 0.139864 
20 1 0.402246 0.0564421 0.0520833 0.880397 -3.34452 -0.457181 -0.102578 0.114024 
19 1 0.446239 1.00696 0.050812 1.14817 -3.29362 -0.17665 -0.528658 0.267743 
59 1 0.46336 0.0913131 0.0544149 0.688882 -3.30213 -0.126163 0.0721853 -0.403608 
418 1 0.457912 0.0522358 0.105932 1.40248 -3.30349 -0.238246 -0.0934761 -0.274567 
417 1 0.39425 0.0160629 0.102198 0.920023 -3.32875 -0.44272 -0.302405 -0.124818 
421 1 0.505032 1.00265 0.102194 0.335526 -3.27211 -0.0715073 -0.26922 0.299404 
24 1 0.508158 0.0395553 0.0536996 1.23737 -3.28314 0.629896 0.790582 -0.379806 
461 1 0.518896 0.0872598 0.100972 0.629841 -3.33423 0.25792 0.23976 -0.0194179 
28 1 0.622439 0.028822 0.0469162 1.79152 -3.3025 0.0257181 0.560743 0.806442 
23 1 0.557877 0.992909 0.0507523 0.811793 -3.27068 0.82823 0.16537 0.509585 
422 1 0.570128 0.0377575 0.102455 0.774518 -3.33565 -0.261316 0.180082 -0.658614 
63 1 0.573271 0.0805539 0.0499328 0.295784 -3.38949 -0.18013 -0.277141 0.162576 
465 1 0.626918 0.0803631 0.101068 0.543243 -3.29105 0.00579176 -0.0605718 -0.4646 
32 1 0.728228 0.0223698 0.0550457 1.47644 -3.3328 0.228618 -0.227432 -0.347145 
67 1 0.686593 0.0753491 0.0508473 1.79654 -3.28309 -0.891185 -0.741144 0.494751 
469 1 0.743268 0.069361 0.102915 1.15126 -3.24425 -0.515098 -0.410627 -0.160704 
426 1 0.678742 0.0335272 0.102627 1.43965 -3.32739 -0.259685 -0.31561 -0.0850409 
36 1 0.791862 0.0556277 0.0500133 1.06073 -3.33482 0.103016 0.377001 -0.130403 
35 1 0.846056 0.00732203 0.0431189 1.0272 -3.29415 -0.398322 -0.160929 0.184568 
434 1 0.857032 0.0503809 0.0927332 7.82157 -3.25218 -0.760116 0.192297 -0.219916 
75 1 0.851311 0.0948743 0.0440478 6.74555 -3.35791 0.277125 -0.00841852 0.23642 
473 1 0.799189 0.103543 0.0964218 7.7509 -3.24265 0.818258 0.137963 -0.577102 
4 1 0.994729 0.0454101 0.0578454 5.77036 -3.23489 0.0240004 0.418461 -0.295227 
401 1 0.993407 0.00595284 0.104862 6.24984 -3.25432 -0.58756 -0.234317 0.395627 
40 1 0.907724 0.0437913 0.0455448 6.86432 -3.28892 0.0906529 0.351509 -0.360639 
402 1 0.0019922 0.0942505 0.0969405 1.74386 -3.28967 -0.0515297 0.351401 0.331548 
43 1 -8.11076e-05 0.137477 0.0494608 1.92471 -3.27491 0.927732 -0.221064 0.715567 
48 1 0.0637471 0.1778 0.0514009 0.737884 -3.35358 0.432299 -0.186409 -0.135874 
45 1 0.066298 0.129654 0.00552092 0.858405 -3.32977 -0.345708 -0.341967 0.229396 
42 1 0.0119545 0.179182 0.00248576 0.312157 -3.30411 0.487079 0.00641368 -0.193407 
47 1 0.120759 0.128432 0.054993 0.591611 -3.34709 -0.702019 -0.0534865 -0.454229 
46 1 0.124406 0.170183 0.00189229 0.54542 -3.29351 0.615459 -0.0997133 0.759841 
445 1 0.0589506 0.135239 0.0998911 0.926576 -3.34703 0.379136 -0.425344 -0.163469 
442 1 0.0141301 0.183718 0.101804 0.442675 -3.28069 -0.73329 0.158025 -0.293871 
52 1 0.182385 0.1658 0.0536986 0.312249 -3.31978 -0.259566 0.0777149 -0.425898 
51 1 0.234319 0.118648 0.0517848 1.0871 -3.30516 -0.759831 -0.776571 0.213901 
450 1 0.238514 0.16076 0.101407 0.512732 -3.34236 0.0377819 0.280078 0.223257 
449 1 0.172068 0.124244 0.100433 0.800629 -3.23937 0.784137 0.0206649 0.40717 
55 1 0.349599 0.1033 0.0503946 0.474305 -3.2889 -0.0184527 -0.24375 0.352245 
56 1 0.294101 0.152068 0.0516319 0.716227 -3.23664 0.662082 0.525793 -0.244446 
95 1 0.359553 0.194149 0.0473644 0.740307 -3.27573 -0.153327 -0.63351 -0.22714 
453 1 0.289254 0.112312 0.0983937 0.325761 -3.31126 0.253577 -0.158748 0.267811 
60 1 0.412563 0.139929 0.0490337 0.530742 -3.31777 0.0448553 0.0913634 -0.177373 
97 1 0.416372 0.18493 -0.0015721 0.435545 -3.36255 0.176092 -0.0585713 0.29082 
99 1 0.469995 0.180618 0.0476806 0.358045 -3.36432 0.439184 0.183721 0.144019 
457 1 0.406609 0.102608 0.103665 1.13357 -3.29032 -0.475658 -0.290146 -0.664287 
458 1 0.468485 0.138551 0.0960472 0.985837 -3.28771 0.0203065 0.28605 0.267221 
497 1 0.414058 0.186725 0.0957111 0.560457 -3.3166 0.599583 0.289368 0.199291 
64 1 0.523032 0.128697 0.0496356 0.661323 -3.30681 0.226839 0.381537 0.283935 
462 1 0.577125 0.128816 0.102751 0.515669 -3.30282 -0.167828 0.117883 -0.69536 
501 1 0.527789 0.177165 0.101068 0.799671 -3.31351 -0.423143 0.0908978 -0.425379 
103 1 0.578855 0.173224 0.0523484 0.872231 -3.34477 0.126222 -0.451782 -0.470149 
68 1 0.631335 0.119736 0.0505986 0.523752 -3.35403 -0.153056 0.418394 0.0501147 
505 1 0.639615 0.167123 0.0968771 0.412662 -3.3224 -0.496295 0.193696 0.30383 
72 1 0.688123 0.161924 0.0492281 1.50329 -3.24121 0.293303 -0.736122 -0.607164 
466 1 0.690736 0.115799 0.103027 2.12402 -3.21363 -0.106797 0.36805 -1.26087 
71 1 0.742281 0.111045 0.0468858 0.60896 -3.24166 0.318216 -0.0131943 0.310581 
470 1 0.754513 0.15382 0.0901962 6.28498 -3.30881 -0.269279 0.17362 0.260353 
76 1 0.806664 0.145838 0.0432839 7.27228 -3.27157 -0.331277 -0.114767 0.462975 
474 1 0.835657 0.157853 0.106592 7.05404 -3.29028 -0.259098 0.226388 -0.866996 
79 1 0.935837 0.100042 0.0568324 8.37102 -3.32736 0.272994 -0.0370174 -0.515081 
477 1 0.887082 0.107808 0.105594 7.83108 -3.27451 -0.55604 0.524163 -0.385672 
44 1 0.955071 0.189175 0.0496282 0.567709 -3.25923 0.356725 -0.284779 0.838387 
80 1 0.88776 0.152882 0.0509478 6.95957 -3.32205 0.293975 -0.333561 0.768085 
478 1 0.898012 0.196201 0.0995434 0.331866 -3.31507 0.400609 -0.0823094 -0.0530583 
441 1 0.948091 0.147194 0.101497 0.415601 -3.33815 0.0376393 -0.0415731 -0.118907 
41 1 0.00193502 0.0879716 0.00754415 3.52552 -3.27158 0.394574 1.01033 0.0301717 
78 1 0.951149 0.142621 0.00530781 6.63313 -3.24997 -0.685943 -0.521456 -0.455746 
83 1 0.0159434 0.22839 0.0524301 0.797982 -3.34031 0.0683239 -0.278363 -0.357439 
88 1 0.0809697 0.2647 0.0485562 0.422451 -3.34387 0.202213 0.0274759 0.217545 
85 1 0.0709939 0.222192 0.000808789 1.07612 -3.35992 0.300505 -0.289906 0.225852 
82 1 0.0209268 0.269112 -0.00135773 0.629398 -3.26739 0.190465 -0.16214 0.884692 
87 1 0.127713 0.215411 0.0515099 0.546604 -3.3757 0.363952 -0.0751156 -0.386164 
91 1 0.244466 0.199779 0.0504554 0.556731 -3.32866 -0.0703363 0.437935 -0.0132865 
92 1 0.19761 0.252901 0.0499452 0.431722 -3.35181 -0.180988 -0.244354 -0.0487118 
86 1 0.141998 0.258653 0.0014016 1.39545 -3.28428 -0.606553 -0.619021 0.0292355 
90 1 0.248882 0.245302 0.000554217 0.473899 -3.36353 0.172654 0.11873 -0.0464147 
89 1 0.188837 0.206146 0.00228688 0.332979 -3.37494 -0.238881 0.0376481 -0.0556184 
493 1 0.302492 0.197988 0.0946021 0.742563 -3.33361 0.0450272 0.0869266 0.80864 
96 1 0.304945 0.240452 0.0515337 1.07133 -3.28881 0.135908 0.227007 -0.611345 
135 1 0.371139 0.281065 0.047472 0.345351 -3.34027 0.25438 -0.163863 -0.162223 
133 1 0.316236 0.283648 0.000467249 0.40658 -3.35173 -0.164733 -0.169494 -0.218995 
93 1 0.302312 0.195197 0.00131748 0.224496 -3.3437 -0.119975 -0.0969612 0.306819 
94 1 0.36439 0.232966 -0.0019017 0.512409 -3.32969 0.0204532 0.410959 0.163728 
100 1 0.422735 0.228716 0.0476779 1.27523 -3.32115 0.0851763 0.638543 -0.211151 
139 1 0.480218 0.272494 0.0382183 2.03178 -3.24951 -0.696052 0.114155 1.03343 
537 1 0.426867 0.278715 0.0963303 0.811422 -3.34266 0.0165379 -0.04838 -0.474095 
498 1 0.475911 0.230273 0.0974046 0.888947 -3.30159 0.10926 -0.810182 -0.569222 
98 1 0.471896 0.228423 -0.00334547 0.745837 -3.28241 0.0805153 -0.42976 -0.147596 
137 1 0.420854 0.275963 -0.0083467 1.46805 -3.27027 0.3302 -0.238064 0.601654 
104 1 0.527172 0.225857 0.0464932 1.37621 -3.30835 -0.027347 -0.641137 0.0811037 
108 1 0.594665 0.256826 0.0448957 0.868267 -3.27172 -0.330688 0.843398 0.291398 
502 1 0.583142 0.217517 0.0950071 1.04712 -3.29343 0.629288 0.175446 0.128583 
541 1 0.534681 0.267612 0.093848 0.620212 -3.29413 0.445105 0.0639285 -0.262095 
107 1 0.640269 0.210907 0.0468872 0.258742 -3.24934 0.193231 -0.208999 0.0641818 
509 1 0.70004 0.203635 0.090543 7.88223 -3.29563 0.226312 0.571366 0.583943 
112 1 0.703775 0.246995 0.0399401 7.61494 -3.3171 0.325614 -0.116675 -0.057865 
147 1 0.657003 0.294722 0.0414533 7.11782 -3.30244 -0.117547 0.218182 -0.0736885 
506 1 0.65425 0.256148 0.0941236 7.38256 -3.33299 -0.429311 -0.491144 -0.250566 
510 1 0.73364 0.262056 0.0993901 5.77357 -3.33309 0.218323 -0.410516 0.452084 
513 1 0.782776 0.20961 0.100879 7.23621 -3.29689 -0.0933501 0.233414 0.0565013 
115 1 0.835884 0.201675 0.0515315 6.81924 -3.24967 0.572269 -0.37715 0.625503 
111 1 0.751995 0.194821 0.0408473 7.81387 -3.29199 -0.113627 0.0797141 -0.124485 
116 1 0.786899 0.247231 0.050318 8.18593 -3.3281 -0.0635918 0.591952 -0.0150668 
120 1 0.856028 0.285627 0.0533741 0.415408 -3.31008 0.277807 0.10653 -0.220292 
114 1 0.847814 0.241055 0.00463422 5.5833 -3.29727 -0.234106 -0.0345423 -0.0390018 
153 1 0.798386 0.293757 0.00804064 7.60067 -3.31931 0.0468759 -0.000737847 0.042868 
81 1 0.963998 0.227695 0.0011874 0.82083 -3.22624 0.00754301 0.322618 0.282637 
481 1 0.964804 0.235427 0.102282 0.620914 -3.35272 -0.144858 -0.37191 0.00093625 
84 1 0.964021 0.276556 0.0513579 0.985709 -3.35759 0.609372 -0.0687459 -0.2334 
119 1 0.907029 0.235317 0.0513438 0.833362 -3.30623 -0.178106 0.343705 0.262784 
118 1 0.907158 0.277684 0.00442008 0.750747 -3.2975 0.408278 0.585557 -0.151858 
123 1 0.0303473 0.314084 0.0504663 0.259689 -3.35678 -0.045987 0.0624996 0.252906 
125 1 0.0833005 0.30672 0.00325687 1.40191 -3.32382 0.393225 0.195491 -0.427283 
128 1 0.10245 0.352894 0.0469293 1.96954 -3.34344 -0.983232 0.12182 0.15758 
122 1 0.0325027 0.354046 0.00147114 1.80288 -3.2985 0.926553 0.430292 -0.00555096 
129 1 0.201788 0.299016 -0.00183704 0.825434 -3.28616 0.400646 -0.377393 0.0835842 
127 1 0.148402 0.302822 0.0425947 1.88156 -3.26168 -0.421024 0.113061 0.699557 
132 1 0.207937 0.345172 0.0483125 1.08675 -3.34433 0.377076 -0.272277 -0.441485 
529 1 0.200573 0.299544 0.0932836 0.925873 -3.32464 0.281023 -0.0309559 0.165849 
169 1 0.211967 0.387137 0.99735 0.681138 -3.31186 0.421419 -0.352713 0.166267 
126 1 0.15257 0.349116 0.999006 0.799024 -3.29707 -0.114646 -0.0876663 -0.249796 
130 1 0.264214 0.332358 0.995707 0.788544 -3.32359 -0.239912 0.247197 0.50222 
131 1 0.261902 0.289309 0.0495473 1.12767 -3.30525 -0.505906 0.566851 -0.404211 
136 1 0.32239 0.328437 0.0478485 0.313954 -3.305 -0.151228 0.24837 0.020573 
175 1 0.381204 0.371835 0.043636 0.75971 -3.24911 0.404351 -0.133139 0.237959 
134 1 0.379263 0.323461 -0.00131874 0.771982 -3.28224 -0.0163092 0.13255 -0.309336 
171 1 0.276056 0.377267 0.043172 1.6338 -3.34401 -0.497391 0.288994 0.37458 
173 1 0.331568 0.368373 0.999519 3.11398 -3.17893 -0.879476 0.646339 -0.564047 
140 1 0.437064 0.322565 0.0437806 1.1643 -3.345 -0.309618 -0.101716 0.27391 
144 1 0.502634 0.362126 0.0437997 1.74154 -3.27986 -0.376215 -0.124651 -0.0958517 
538 1 0.490883 0.317371 0.0923332 0.468022 -3.32502 -0.476662 0.165774 0.0425599 
143 1 0.540931 0.307729 0.0427175 0.77159 -3.33562 0.407325 0.140515 -0.266177 
545 1 0.602383 0.304189 0.0909977 6.78056 -3.33446 -0.148325 -0.173055 -0.0923248 
148 1 0.606722 0.344194 0.0394555 8.3036 -3.32345 -0.156945 0.106675 0.0418743 
542 1 0.55543 0.352081 0.0902894 7.4775 -3.33172 -0.0076096 0.194505 0.366998 
183 1 0.567376 0.398749 0.0418737 8.80804 -3.27174 -0.775148 -0.450294 -0.101874 
581 1 0.511704 0.404493 0.092006 7.36524 -3.33233 -0.383957 -0.31311 0.0257273 
549 1 0.685139 0.30982 0.101766 6.93623 -3.29764 0.171611 0.307536 0.414601 
151 1 0.739888 0.303143 0.052801 6.62154 -3.32862 0.197455 0.053976 0.230923 
152 1 0.684079 0.351658 0.0553897 8.04427 -3.31573 0.680987 0.112091 0.249168 
189 1 0.698811 0.390704 0.0056497 7.79163 -3.35979 0.220553 0.451489 0.0889955 
150 1 0.75528 0.345142 0.00754482 8.00773 -3.22828 -0.854894 -0.331702 0.297901 
155 1 0.811464 0.337874 0.0583818 1.37316 -3.35084 -0.299408 0.00729145 -0.172691 
156 1 0.757997 0.387015 0.0551238 0.587475 -3.34219 0.0656802 0.000604218 0.0507688 
154 1 0.812018 0.380266 0.0076422 0.895604 -3.25838 0.597922 0.484828 -0.191402 
160 1 0.872464 0.379135 0.05295 1.12034 -3.24182 -0.282497 -1.10039 -0.13611 
157 1 0.859752 0.331931 0.00458755 0.457356 -3.36712 0.236636 -0.259055 0.0706924 
159 1 0.920297 0.325825 0.0530748 0.214103 -3.35902 -0.0146477 0.101618 -0.405382 
121 1 0.972838 0.318504 0.000325819 0.452493 -3.33792 -0.304317 -0.312021 0.289722 
124 1 0.983075 0.366999 0.0510934 0.646529 -3.30516 -0.0815802 -0.707463 0.118949 
158 1 0.925964 0.367209 0.00380556 0.33352 -3.33971 -0.0498522 0.0776055 -0.103914 
163 1 0.0461799 0.4014 0.0493589 0.960144 -3.35087 0.724005 0.246886 -0.308075 
165 1 0.101263 0.395039 -0.0071779 2.26177 -3.34536 -0.0568572 0.255328 0.734108 
168 1 0.107654 0.445542 0.0460549 0.750776 -3.2348 0.0267153 -0.815375 0.143872 
162 1 0.0562617 0.447027 0.997442 0.377719 -3.33929 -0.376662 -0.278048 -0.187088 
205 1 0.114544 0.485028 -0.00429193 0.548124 -3.2849 0.2333 0.531253 -0.0751561 
167 1 0.158373 0.39613 0.0482393 0.911802 -3.28196 0.168768 -0.192173 -0.144794 
172 1 0.225266 0.433787 0.0423174 1.35387 -3.31424 -0.135315 -0.36054 0.638033 
166 1 0.166428 0.435781 1.00207 1.86629 -3.29445 -0.38113 0.18799 -0.841234 
207 1 0.167946 0.480838 0.0459033 1.00218 -3.31455 0.590056 0.688172 -0.0822704 
209 1 0.230107 0.475657 0.991843 1.25913 -3.23975 -0.663844 0.227399 0.466719 
176 1 0.331884 0.41884 0.0445581 1.05362 -3.31171 -0.186822 0.243495 -0.283911 
170 1 0.277865 0.42161 0.994051 0.851081 -3.31033 0.123948 0.165332 0.38295 
211 1 0.281857 0.472945 0.0380984 1.78544 -3.29931 0.28484 -0.075035 0.769361 
179 1 0.450477 0.407332 0.0373399 1.13233 -3.23175 -0.00687205 0.310838 0.055509 
180 1 0.402474 0.452151 0.0406861 2.50133 -3.25463 -0.365396 0.73159 -0.591921 
578 1 0.45946 0.449996 0.0873915 6.93122 -3.30386 -0.49593 -0.100345 0.242537 
219 1 0.462275 0.493653 0.0359204 7.50787 -3.25691 0.00281555 -0.207498 -0.558906 
617 1 0.411839 0.502073 0.0804364 6.58727 -3.29907 -0.176039 -0.0253896 0.741044 
585 1 0.589689 0.409245 0.108267 7.70288 -3.34547 0.19156 -0.0199005 -0.248434 
184 1 0.510512 0.446578 0.0396717 6.4603 -3.30111 0.29709 -0.428232 -0.417046 
188 1 0.594264 0.451229 0.0500842 6.38024 -3.27673 0.052342 0.144728 0.579408 
582 1 0.540626 0.458888 0.101073 6.30462 -3.25829 0.165426 -0.0685335 0.151234 
225 1 0.606402 0.48979 0.00340561 7.2048 -3.25927 -0.525301 0.496756 0.165433 
187 1 0.640761 0.401349 0.0535209 7.8531 -3.29524 0.397637 0.0177557 0.557984 
191 1 0.708078 0.435211 0.0556161 1.02724 -3.30258 0.389289 -0.347428 -0.297388 
192 1 0.664918 0.481926 0.0546252 2.35873 -3.22838 -0.608676 0.863165 -0.470667 
190 1 0.719767 0.479557 0.00625523 1.12768 -3.29526 -0.189447 0.326619 0.139288 
186 1 0.652856 0.443279 0.00520557 6.97616 -3.30994 0.148534 -0.452704 -0.179531 
195 1 0.823743 0.425046 0.0526642 0.312315 -3.30297 -0.0685079 0.0301885 0.0763102 
193 1 0.770587 0.435112 0.00674252 2.08024 -3.28824 -0.499064 -0.63837 -0.245453 
196 1 0.77365 0.473346 0.0552233 1.68992 -3.28476 0.0777387 0.59075 -0.304628 
194 1 0.831652 0.470477 0.00224857 0.742363 -3.32731 -0.229381 0.0152497 -0.225088 
197 1 0.877745 0.417585 0.00431499 0.166926 -3.3119 -0.0279906 0.0526357 -0.432521 
164 1 1.00164 0.454663 0.0453009 0.64339 -3.32652 -0.107018 -0.0182116 0.0613278 
161 1 0.992852 0.407041 1.00309 0.691391 -3.32326 -0.16768 0.221235 -0.307476 
199 1 0.932008 0.412798 0.0508527 0.996637 -3.25932 0.762646 0.465901 -0.468699 
200 1 0.886517 0.465517 0.0480527 0.44885 -3.31542 0.679982 -0.113595 -0.39595 
198 1 0.944487 0.455305 0.998506 0.347957 -3.33824 0.0222252 0.421542 0.26277 
203 1 0.061968 0.491638 0.0456039 0.337341 -3.24861 -0.345302 0.29507 -0.0314123 
208 1 0.116197 0.532137 0.0425313 1.95655 -3.3544 0.688325 0.126664 0.0763765 
243 1 0.0764244 0.58487 0.0479737 0.941016 -3.34368 -0.190776 -0.176628 -0.102417 
202 1 0.0662801 0.535299 -0.0113906 2.48853 -3.19171 0.483351 0.269278 1.13428 
204 1 0.0166708 0.541317 0.0445716 0.644509 -3.32558 0.108565 0.0304646 -0.0212586 
241 1 0.0178828 0.582655 0.995629 1.30395 -3.32897 0.267624 0.567877 -0.104032 
245 1 0.131864 0.575095 0.995164 0.884268 -3.33368 -0.28032 0.149829 0.187842 
212 1 0.232809 0.522041 0.0443412 0.864286 -3.33951 -0.191443 -0.320146 -0.493178 
206 1 0.180456 0.525569 0.99294 0.878697 -3.37451 -0.0854256 0.178272 0.591862 
249 1 0.191864 0.615678 0.994616 0.517475 -3.31212 -0.185277 -0.464978 0.148672 
247 1 0.181819 0.571056 0.046523 1.75066 -3.3619 0.231486 -0.0783634 -0.386438 
251 1 0.254862 0.60391 0.0392957 1.20435 -3.25206 -0.522293 -0.00237491 0.308063 
215 1 0.353717 0.501666 0.0370985 2.86792 -3.269 -0.318264 0.735557 0.103382 
216 1 0.299785 0.555798 0.0385066 0.911236 -3.2979 0.291175 0.0652391 0.172101 
255 1 0.371929 0.599862 0.0375559 7.9749 -3.29976 -0.781629 -0.259972 -0.310302 
614 1 0.360359 0.547687 0.0804882 8.21053 -3.36543 0.120338 0.482332 0.0582885 
653 1 0.314754 0.598399 0.0862646 7.05986 -3.28671 0.0422241 0.0702459 -0.324618 
220 1 0.41746 0.548893 0.0326655 6.3123 -3.24409 -0.784443 -0.626326 -0.109582 
618 1 0.440096 0.557036 0.101525 7.09771 -3.30667 -0.038586 -0.15426 -0.224955 
259 1 0.443218 0.601096 0.0502039 8.66754 -3.20297 0.819136 0.418117 0.722243 
224 1 0.488312 0.54859 0.047131 7.94818 -3.2235 0.849447 0.120071 0.858355 
261 1 0.497754 0.591613 0.00421002 7.25849 -3.28436 0.470624 0.426339 0.0396567 
223 1 0.542075 0.498513 0.0474633 7.24634 -3.31074 0.536852 0.401489 -0.0436195 
228 1 0.559457 0.581102 0.0507415 1.32526 -3.36221 -0.104033 0.503328 0.287642 
227 1 0.610733 0.535223 0.051381 0.569365 -3.33997 -0.2182 -0.401415 0.197247 
226 1 0.621126 0.57769 0.00617104 1.2915 -3.22891 -1.05049 0.117974 -0.55846 
222 1 0.547796 0.54165 0.000990508 6.57678 -3.32227 0.507267 -0.114897 0.118359 
231 1 0.722597 0.530599 0.0478716 2.68791 -3.26052 0.550777 -1.28081 0.344881 
232 1 0.674183 0.573747 0.0492763 0.472332 -3.22841 -0.0746662 0.475437 0.79353 
229 1 0.666396 0.526245 0.00606478 1.35864 -3.29243 0.0194035 0.1511 -0.571193 
230 1 0.723969 0.568512 -0.0016838 1.34266 -3.20046 0.763994 -0.0355252 0.371641 
235 1 0.839295 0.516035 0.0455617 0.506394 -3.37125 -0.0977493 0.0173415 -0.046126 
236 1 0.786685 0.564218 0.0446286 0.532237 -3.32358 0.044942 0.0480155 0.56378 
233 1 0.778022 0.5192 -0.00152249 0.577429 -3.32115 0.0970688 0.109277 0.424989 
234 1 0.84565 0.558126 0.997649 0.557624 -3.27815 -0.411129 -0.168395 0.319671 
239 1 0.951772 0.5048 0.0415338 0.817677 -3.37804 -0.126727 -0.478277 0.580831 
237 1 0.894157 0.506272 -0.00914142 2.76523 -3.28011 0.105655 -0.206147 0.770421 
240 1 0.905078 0.556231 0.0467559 1.0002 -3.29097 -0.339001 -0.593995 -0.0096773 
238 1 0.957138 0.545697 0.996963 0.65155 -3.25974 -0.0197354 0.0845858 -0.448186 
201 1 0.0088509 0.499323 0.993692 0.864465 -3.3107 -0.498808 -0.551807 0.150391 
242 1 0.0832105 0.625239 1.0006 1.16937 -3.34361 -0.345709 0.095487 -0.409195 
244 1 0.0270632 0.638023 0.0483249 2.31625 -3.26896 -0.483592 -0.890039 0.0806449 
281 1 0.0272269 0.674937 0.999077 0.775687 -3.33107 0.225518 -0.0809303 -0.628011 
283 1 0.0857842 0.673 0.0472993 0.655948 -3.22035 0.285871 -0.0896851 -0.387247 
248 1 0.13674 0.623495 0.0489453 0.918912 -3.27854 0.319309 -0.263502 -0.468189 
252 1 0.20371 0.658772 0.041054 1.10093 -3.27735 -0.29617 -0.0205066 0.657716 
287 1 0.152807 0.70477 0.0461125 1.47776 -3.31395 0.326968 0.256748 -0.432766 
689 1 0.215426 0.69829 0.0904879 7.47438 -3.31851 0.135972 -0.0385983 -0.63697 
256 1 0.316359 0.643926 0.0401749 7.51304 -3.29453 -0.111746 0.155278 -0.586552 
291 1 0.267665 0.701403 0.0362952 6.75466 -3.31979 -0.0276407 -0.755282 0.00647385 
295 1 0.344911 0.701392 0.0490073 9.15542 -3.17985 -0.851297 0.96143 0.92358 
654 1 0.346077 0.659478 0.101092 6.33699 -3.30171 -0.196613 0.0108865 0.250373 
650 1 0.265724 0.644893 0.0890065 7.86203 -3.29188 -0.246406 0.697427 -0.192274 
260 1 0.390491 0.658038 0.0502784 7.91618 -3.16863 1.1977 -0.99191 0.328763 
297 1 0.398722 0.699434 0.00865575 6.59656 -3.17359 1.18071 0.33081 -0.75219 
264 1 0.462379 0.691478 0.0564303 1.01027 -3.29397 -0.56996 -0.386773 -0.256899 
258 1 0.450161 0.643671 0.00714853 5.84394 -3.34906 0.0734463 0.666362 -0.20834 
263 1 0.510672 0.637817 0.0532021 0.485447 -3.3255 -0.366945 -0.327968 -0.209272 
268 1 0.568873 0.675064 0.0485871 0.870018 -3.35721 0.386205 0.53415 0.118235 
265 1 0.569747 0.629373 0.00504087 0.93705 -3.27824 -0.16914 -0.153955 -0.0203928 
262 1 0.509887 0.685331 0.00253108 1.82444 -3.24694 0.448138 -0.559351 0.242082 
267 1 0.622968 0.624462 0.0496708 0.175249 -3.31535 0.0221862 0.0403244 0.426405 
266 1 0.628906 0.669809 -2.6557e-05 0.374541 -3.34136 -0.0759432 0.0845432 0.535309 
271 1 0.737539 0.6175 0.0464379 1.38278 -3.30594 0.0634279 -0.779174 0.638687 
272 1 0.687359 0.667235 0.0464125 1.62439 -3.24442 -0.645883 -0.94126 0.592374 
270 1 0.741222 0.656699 1.00056 0.43341 -3.28143 0.301925 -0.0938208 -0.492725 
269 1 0.680065 0.617275 1.0057 1.70381 -3.222 -0.269707 0.78736 -0.248409 
275 1 0.853265 0.602143 0.0503854 1.30091 -3.3673 -0.394363 0.477895 -0.408019 
276 1 0.799894 0.654873 0.0494846 1.1674 -3.26802 0.284158 -0.797596 -0.43787 
273 1 0.792054 0.602805 0.998144 1.49054 -3.30077 0.109759 1.09074 0.160909 
274 1 0.856655 0.641199 0.994106 1.51049 -3.36754 -0.295824 0.474563 0.623673 
277 1 0.906331 0.594707 0.996959 0.386332 -3.25849 0.168872 0.472524 0.180514 
279 1 0.967448 0.591952 0.0434753 1.10263 -3.25852 -0.358918 0.0563924 0.255487 
280 1 0.911994 0.643192 0.0457662 0.767222 -3.31568 -0.37272 -0.514378 0.219949 
319 1 0.969944 0.680991 0.0489869 1.03027 -3.26025 0.22546 0.277929 -0.374716 
278 1 0.966822 0.633198 0.999282 1.00496 -3.33299 0.338074 0.474231 -0.526648 
317 1 0.918821 0.684588 0.996147 0.361046 -3.37317 -0.127495 0.0189406 -0.110646 
288 1 0.0986553 0.751185 0.0395783 2.38993 -3.21354 0.191075 1.26155 0.86333 
725 1 0.113656 0.797723 0.085433 7.74461 -3.35235 -0.839761 0.078819 -0.0148978 
284 1 0.0327877 0.718883 0.040454 1.45543 -3.28694 -0.0986142 0.136364 0.814414 
323 1 0.0469143 0.806011 0.0417275 0.49954 -3.32734 0.257928 -0.101972 0.275837 
292 1 0.217567 0.748562 0.0362851 7.55918 -3.29125 -0.808183 -0.296837 0.25038 
327 1 0.165496 0.795985 0.0371516 7.43738 -3.25369 -0.0749673 -0.176487 0.191499 
686 1 0.164889 0.750577 0.0917107 8.03014 -3.25176 -0.194893 -0.0497217 -1.11071 
693 1 0.294462 0.707105 0.10132 6.34074 -3.33037 -0.0404405 0.0986077 -0.612488 
296 1 0.295302 0.756703 0.0513062 7.11259 -3.28655 0.669959 -0.25453 0.29887 
294 1 0.350856 0.749933 0.00399143 6.78747 -3.32965 -0.0242659 0.149733 0.12064 
300 1 0.361769 0.79363 0.0539811 0.854413 -3.36563 -0.205993 0.120089 0.0367494 
697 1 0.352314 0.750921 0.104571 0.668459 -3.22487 0.296437 -0.390806 -0.535941 
333 1 0.302841 0.803174 0.002613 7.09398 -3.22111 0.201592 -1.09609 0.212917 
299 1 0.405598 0.743076 0.0609815 2.39924 -3.296 0.465621 0.0606421 -1.08021 
304 1 0.47367 0.787672 0.0574599 4.1809 -3.2568 -0.53945 -1.21521 0.0578867 
301 1 0.465187 0.732694 0.00706363 0.841004 -3.2653 -0.535267 0.378183 0.13575 
698 1 0.412338 0.788109 0.104299 0.764667 -3.28197 0.55504 0.244394 -0.191215 
303 1 0.520668 0.727408 0.0517301 0.543043 -3.3254 0.578349 0.265163 0.157457 
308 1 0.589322 0.764368 0.0543583 0.580977 -3.29856 -0.362024 -0.103512 -0.571116 
302 1 0.524847 0.770572 0.00425253 1.20939 -3.30843 0.785255 0.0957749 0.35016 
305 1 0.578591 0.721889 -0.00117996 1.30206 -3.36377 -0.0043884 -0.417347 0.807239 
705 1 0.575684 0.723407 0.102366 0.919338 -3.30871 0.520738 -0.75879 -0.250713 
702 1 0.533174 0.770595 0.0992954 1.70873 -3.22537 -0.573444 0.467812 0.0384692 
311 1 0.74968 0.699141 0.0486429 0.639446 -3.2631 -0.150189 0.868005 0.141215 
307 1 0.634375 0.71181 0.0529078 0.638204 -3.34441 -0.319873 0.183515 -0.243782 
309 1 0.691906 0.704997 7.13611e-05 0.433378 -3.26913 0.0757626 0.64564 0.0835008 
312 1 0.695966 0.75142 0.0563987 1.44681 -3.31351 0.547941 -0.0837393 -0.203363 
306 1 0.645318 0.755671 1.00679 1.1733 -3.30496 -0.302683 -0.084042 -0.450819 
310 1 0.755712 0.741651 0.99927 0.945819 -3.31759 -0.27054 0.685518 0.710764 
351 1 0.760203 0.78669 0.0509446 1.46709 -3.36719 -0.229483 0.127228 -0.255901 
315 1 0.863723 0.690169 0.0439867 1.24752 -3.31262 -0.10103 -0.153419 0.241168 
316 1 0.815924 0.738686 0.0495198 1.27544 -3.2814 -0.85027 0.24417 -0.442834 
313 1 0.802427 0.693302 1.00018 0.731587 -3.28594 0.857843 -0.00955141 -0.0816439 
355 1 0.872632 0.781844 0.0462317 0.545576 -3.35905 0.0756891 -0.212827 0.408227 
353 1 0.814052 0.785851 1.0004 0.52262 -3.36501 0.015092 -0.203091 0.0404653 
314 1 0.866267 0.73461 0.999951 0.330533 -3.30724 -0.0919038 -0.102582 -0.460466 
320 1 0.923184 0.732132 0.0431904 0.799736 -3.28488 -0.28367 -0.248884 0.675807 
359 1 0.98327 0.770583 0.0454973 0.554451 -3.31606 0.0530421 -0.132268 -0.197002 
357 1 0.926748 0.771943 0.994605 0.890709 -3.25537 -0.172347 0.590159 0.29279 
318 1 0.976481 0.727684 0.995852 0.81043 -3.26378 0.309694 -0.708943 0.160397 
328 1 0.109844 0.85187 0.0415149 6.66257 -3.30006 0.258616 -0.643749 -0.147552 
363 1 0.060835 0.895402 0.0384728 6.40206 -3.27077 -0.232784 0.455221 0.309427 
722 1 0.0519492 0.850667 0.0858757 7.68915 -3.31064 0.276869 0.105613 0.317005 
324 1 0.992657 0.860119 0.0426093 1.15461 -3.27453 0.145842 -0.161285 0.0502757 
761 1 1.00737 0.902827 0.092428 6.91579 -3.3485 -0.0195933 -0.319746 -0.241075 
729 1 0.186808 0.808719 0.100623 6.98883 -3.27427 0.842898 -0.244222 0.252453 
331 1 0.247009 0.801286 0.0522831 7.22631 -3.30477 -0.141522 0.696954 0.290872 
332 1 0.195601 0.849997 0.0525959 7.10192 -3.32189 0.340191 0.516548 0.0823255 
726 1 0.141509 0.855657 0.10016 7.01867 -3.25809 0.0492578 0.301188 0.368981 
336 1 0.258047 0.889076 0.0605914 1.94852 -3.31225 0.0056947 0.340059 -0.476536 
733 1 0.255503 0.847225 0.108234 1.47855 -3.23946 -0.536533 -0.0654154 -1.00046 
330 1 0.259687 0.847688 0.00915567 9.42211 -3.21608 -1.17705 0.622989 -0.486283 
335 1 0.309951 0.846489 0.055565 0.916061 -3.22375 0.194976 -0.7398 0.488217 
340 1 0.369761 0.883859 0.0580223 0.708156 -3.29298 0.238837 -0.13639 -0.133496 
337 1 0.363453 0.836441 0.0075849 0.374402 -3.31834 0.623139 0.157334 -0.264608 
694 1 0.301919 0.798357 0.101279 0.529806 -3.34114 0.239952 -0.0542833 -0.160784 
734 1 0.317894 0.887648 0.105177 0.495166 -3.29616 -0.16452 0.180614 0.191212 
737 1 0.361835 0.838095 0.105217 0.492661 -3.32878 0.504572 0.0828225 -0.306151 
339 1 0.421906 0.837068 0.0601875 2.52688 -3.24796 -0.819092 -0.783882 -0.150561 
344 1 0.482973 0.865935 0.0575509 0.713515 -3.2307 1.20969 0.391001 -0.166321 
738 1 0.4257 0.880944 0.109503 1.79541 -3.30867 0.0719001 -0.475733 -0.135368 
343 1 0.541145 0.814806 0.0566287 0.999653 -3.32438 4.03125e-05 0.34046 -0.205276 
348 1 0.607791 0.851392 0.0570658 2.07246 -3.34121 -0.734571 0.0711834 -0.141628 
742 1 0.542608 0.862877 0.108968 0.91554 -3.33902 -0.382113 -0.134666 -0.473988 
745 1 0.594695 0.810326 0.104831 0.22711 -3.33554 0.0999083 0.124572 -0.101503 
347 1 0.652575 0.800813 0.0533078 0.970373 -3.28421 -0.238262 0.410037 0.266688 
352 1 0.715471 0.839899 0.0545144 0.871498 -3.29309 -0.471317 -0.0451827 -0.0300959 
746 1 0.654916 0.850661 0.110415 1.81671 -3.23944 -0.0504227 -0.00161217 -0.691408 
750 1 0.769629 0.834764 0.10244 0.932911 -3.3065 -0.375288 0.184312 0.0280184 
389 1 0.722024 0.881167 0.00507656 1.88756 -3.24042 -0.808345 0.58671 -0.408885 
356 1 0.82097 0.82936 0.0531455 0.553901 -3.33255 0.0984873 0.243286 -0.332713 
354 1 0.876118 0.822762 0.99825 0.636442 -3.26445 -0.117268 -0.215616 0.0956165 
391 1 0.769606 0.880989 0.0535622 0.500131 -3.24576 0.0149045 -0.0497301 0.213324 
350 1 0.767076 0.835106 0.00420842 0.249147 -3.30654 0.141408 -0.442576 -0.129186 
393 1 0.833451 0.871363 1.00228 2.41311 -3.26568 -0.87627 0.281464 0.0907588 
395 1 0.881771 0.870207 0.0521229 1.44577 -3.31093 0.192002 0.0229368 0.0848568 
360 1 0.933606 0.820345 0.0421401 1.28003 -3.33911 0.00413452 -0.385981 0.60341 
358 1 0.930375 0.865291 0.999997 2.3455 -3.27661 0.651911 -0.0764398 -0.123479 
765 1 0.0966335 0.903611 0.100042 6.44947 -3.3156 -0.577647 0.0477706 0.371353 
368 1 0.103779 0.949694 0.0563489 6.93983 -3.24153 -0.601909 -0.0751774 -0.38415 
762 1 0.043084 0.956169 0.104281 8.19923 -3.30587 -0.208627 -0.40707 0.148075 
364 1 1.01281 0.944033 0.0398585 8.34479 -3.30927 -0.0625017 -0.0230228 0.0998668 
766 1 0.104003 0.990926 0.0995045 1.59827 -3.25054 0.22252 0.430234 0.861433 
371 1 0.214692 0.937919 0.0541002 1.18804 -3.2747 -0.457064 0.286849 0.0654011 
367 1 0.152144 0.905427 0.0549551 6.93156 -3.27163 0.0750769 -0.860121 -0.535293 
372 1 0.163815 0.991102 0.0541095 0.891782 -3.26283 -0.0266528 -0.862948 0.315447 
730 1 0.201812 0.898224 0.106625 1.77864 -3.26395 0.702118 -0.879408 -0.242049 
769 1 0.158374 0.943552 0.105322 0.725665 -3.16664 -0.365743 0.51837 -0.442186 