ITEM: TIMESTEP
20000
ITEM: NUMBER OF ATOMS
4000
ITEM: BOX BOUNDS pp pp pp
3.9899400834669714e+00 3.6510059916532455e+01
-4.0834638556790157e+00 4.4583463855677728e+01
-7.0420430311311877e-01 4.1204204303113634e+01
ITEM: ATOMS id type xs ys zs c_csym c_peratom fx fy fz 
7 1 0.0935941 0.0557154 0.0481762 0.61907 -3.35931 0.144826 0.273326 0.372438 
3 1 0.0290693 0.0199783 0.0506596 0.936657 -3.27426 0.149576 0.399288 -0.399492 
2 1 0.0319778 0.0658241 6.91693e-05 0.999817 -3.24351 0.806911 0.291525 -0.108398 
372 1 0.147121 0.00483953 0.0548386 1.07718 -3.24868 -0.641419 0.378106 -0.00801668 
766 1 0.0823018 0.0170748 0.102923 1.03729 -3.30126 0.488213 0.20284 -0.169033 
11 1 0.208698 0.0425358 0.0517904 0.231144 -3.27195 0.0184086 -0.0293828 0.125327 
12 1 0.15682 0.0926398 0.048288 0.692175 -3.29967 -0.140689 -0.689058 0.343177 
16 1 0.271816 0.0784902 0.050163 0.81436 -3.26635 -0.324786 0.219177 -0.0380576 
409 1 0.151753 0.0503292 0.103183 0.48261 -3.32176 -0.498165 -0.157566 -0.427411 
410 1 0.215985 0.0851481 0.0984755 0.873398 -3.26082 -0.198113 0.175695 -0.0763154 
413 1 0.26294 0.0383119 0.102386 0.727496 -3.20581 -0.328428 -0.378946 -0.326014 
15 1 0.320899 0.0268067 0.0500358 0.883027 -3.31629 0.365961 0.371385 0.391792 
20 1 0.387474 0.0635016 0.0527598 0.904624 -3.33485 0.0552801 0.120464 -0.0320589 
414 1 0.323056 0.0744584 0.0987844 0.470752 -3.29165 0.442074 0.134163 0.384263 
417 1 0.378097 0.0186139 0.104282 1.08388 -3.26113 0.137831 0.430691 -0.236385 
19 1 0.429258 0.0145785 0.0534063 1.15824 -3.28117 0.619897 0.23093 -0.245128 
24 1 0.498163 0.0491203 0.0497751 0.241594 -3.33212 -0.0298252 -0.0581444 -0.0150892 
63 1 0.562294 0.0851412 0.0475954 0.333298 -3.3588 0.118384 -0.0275384 0.114817 
461 1 0.509863 0.091813 0.103077 0.946258 -3.30989 -0.0622201 0.285026 -0.373329 
418 1 0.442695 0.0599197 0.10215 0.881778 -3.32533 -0.203489 -0.279827 -0.183152 
421 1 0.490418 0.00732858 0.103295 0.441537 -3.26558 0.193809 0.282002 -0.190771 
422 1 0.554042 0.041219 0.0997056 0.531564 -3.30005 0.572613 0.37577 -0.169126 
28 1 0.617377 0.0347349 0.0452112 1.05637 -3.31835 -0.711919 0.145674 0.559837 
67 1 0.677603 0.0738527 0.0480858 1.52519 -3.29763 0.165196 -0.664293 0.222487 
465 1 0.619478 0.08002 0.0985557 0.676934 -3.33568 -0.31929 -0.294837 0.184483 
32 1 0.732607 0.0175526 0.0486786 1.39879 -3.26077 -0.67515 0.503632 -0.0386301 
36 1 0.793542 0.0539023 0.0490397 0.260721 -3.3121 0.180813 0.367944 0.0119754 
34 1 0.859099 0.0484049 -0.00374971 1.51552 -3.22482 -0.904957 -0.35053 0.16496 
35 1 0.843693 0.00445189 0.0518861 1.16714 -3.2385 0.215936 0.121395 -0.346337 
473 1 0.794327 0.0995222 0.1022 2.90156 -3.22535 0.669288 -0.833626 -0.449457 
469 1 0.73371 0.0610831 0.101976 0.759885 -3.31394 0.40904 0.166873 -0.205818 
430 1 0.786407 0.0164638 0.100606 1.34068 -3.31493 0.0199623 -0.327616 0.582995 
33 1 0.792052 0.0128144 0.999656 0.698502 -3.3829 0.133018 -0.425245 -0.286258 
75 1 0.859584 0.0890008 0.045699 0.663694 -3.36429 0.0126108 0.163946 0.23032 
4 1 0.979502 0.070525 0.0523428 0.991326 -3.26126 -0.750966 -0.212481 -0.477722 
40 1 0.907716 0.0389418 0.0471712 1.11867 -3.28259 0.676925 0.215232 0.354191 
401 1 0.972904 0.0279181 0.0999808 1.12791 -3.2845 -0.13923 0.286924 0.312813 
38 1 0.972701 0.0331886 0.998989 0.638967 -3.2558 -0.676557 -0.836465 0.216397 
8 1 0.0410908 0.105032 0.0467378 0.881322 -3.31628 0.625038 0.51807 0.411009 
47 1 0.114431 0.139157 0.0529877 1.83411 -3.31497 -0.819551 0.284105 -0.353175 
406 1 0.0979259 0.0972399 0.101591 0.703728 -3.31443 0.123994 0.230719 -0.36005 
445 1 0.0491624 0.149527 0.0970177 0.944193 -3.30097 0.392002 -0.0640498 0.5474 
52 1 0.174265 0.178907 0.0469015 1.69805 -3.19449 -0.40992 -0.323913 0.49392 
51 1 0.217892 0.12646 0.0466262 1.37268 -3.27399 0.680964 0.363699 0.278066 
449 1 0.164452 0.132569 0.102997 1.15379 -3.18499 0.315306 -0.55264 -0.30458 
450 1 0.217714 0.172806 0.101927 6.15876 -3.2799 0.584974 0.61955 -0.29244 
453 1 0.266804 0.128626 0.096496 3.67946 -3.24419 0.490726 -0.454022 0.382713 
55 1 0.332166 0.118729 0.0534279 1.32992 -3.2547 -0.146324 -0.257566 0.0239284 
56 1 0.283743 0.166874 0.0482604 1.09786 -3.2368 -0.629039 -0.81013 0.102481 
60 1 0.402372 0.148322 0.0531959 1.31482 -3.27893 0.167111 0.904611 0.36471 
454 1 0.335829 0.157514 0.10324 0.927237 -3.28747 0.614255 0.218265 -0.156771 
54 1 0.346817 0.155287 0.00277377 1.31587 -3.29346 -0.190955 0.505665 -0.0944471 
59 1 0.454771 0.102393 0.0507171 1.15285 -3.24488 -0.152794 -0.916807 0.38952 
458 1 0.457465 0.142003 0.103908 0.521567 -3.33003 -0.311326 0.176803 -0.15973 
64 1 0.511777 0.138144 0.0522369 0.663483 -3.21964 0.144046 -0.116841 -0.0957079 
462 1 0.57061 0.132252 0.101038 1.19867 -3.29537 -0.377317 -0.711624 0.340195 
501 1 0.519976 0.180226 0.102152 0.477823 -3.23773 -0.598403 -0.530883 0.534261 
99 1 0.463114 0.187905 0.0547669 0.983404 -3.28079 -0.600017 -0.747859 -0.451901 
62 1 0.570282 0.128255 0.000519495 0.445223 -3.34127 0.285316 -0.107368 0.0429817 
103 1 0.575089 0.170945 0.0544473 1.24528 -3.251 0.640599 0.256729 -0.854295 
68 1 0.628352 0.120488 0.0502142 0.347036 -3.3246 -0.0403367 0.0901619 -0.389611 
72 1 0.696713 0.155319 0.0511152 0.591366 -3.29376 -0.338342 -0.460429 -0.380237 
505 1 0.638853 0.159851 0.0976184 1.04693 -3.2656 0.246073 0.52674 0.46548 
66 1 0.640818 0.160334 1.00031 0.562933 -3.36767 -0.348615 -0.19178 0.0398873 
466 1 0.689175 0.110831 0.0966613 0.832616 -3.28182 0.00568089 0.0387143 0.448838 
69 1 0.693692 0.106876 -0.00301104 2.198 -3.25749 -0.543888 0.63461 0.102546 
71 1 0.748273 0.10439 0.0480201 0.674589 -3.27055 -0.493842 -0.277141 0.184121 
76 1 0.811491 0.137274 0.0498166 0.739142 -3.32029 0.144959 0.344199 -0.174798 
470 1 0.752754 0.145318 0.0997648 0.444054 -3.22529 -0.0441946 0.640737 -0.144989 
70 1 0.753511 0.143122 0.996697 0.861365 -3.32534 0.146866 0.497351 0.506197 
113 1 0.814889 0.182025 0.00129176 1.20582 -3.28206 0.710891 -0.47435 0.430498 
80 1 0.881161 0.168386 0.0506885 1.43558 -3.36153 -0.397657 0.181604 -0.0736037 
74 1 0.862733 0.131359 -0.00473456 2.38079 -3.22651 0.609562 -0.203741 1.34766 
43 1 0.993292 0.155658 0.0501566 0.492701 -3.32038 -0.00123241 0.23392 -0.0571104 
79 1 0.930822 0.120322 0.0466968 1.07169 -3.28687 -0.749304 0.0819818 0.635066 
402 1 0.986965 0.114382 0.0988881 0.490934 -3.28524 -0.28457 -0.160639 0.0806505 
78 1 0.934752 0.163607 0.998782 0.379214 -3.26088 0.519848 -0.0960838 0.430906 
446 1 0.12495 0.179477 0.100495 6.94767 -3.24765 -0.730496 0.468692 0.110074 
48 1 0.0618284 0.190548 0.0564253 2.06828 -3.33047 -0.0601925 0.208727 -0.598313 
83 1 0.00928858 0.243465 0.0495777 0.571224 -3.32589 -0.31272 -0.233157 0.0433889 
87 1 0.128309 0.22678 0.0507465 1.3124 -3.23167 -0.68276 -0.167478 -0.112178 
486 1 0.125572 0.274077 0.0991891 1.03994 -3.20043 0.045034 -0.285039 0.547112 
91 1 0.234671 0.214584 0.0500999 0.486834 -3.28644 -0.204198 0.450358 0.0228899 
92 1 0.180183 0.267688 0.052528 1.72798 -3.27724 0.76235 -0.197231 -0.318504 
489 1 0.171389 0.223213 0.103065 1.9561 -3.23772 0.827028 0.144098 -0.12439 
490 1 0.241894 0.25566 0.100923 0.369819 -3.32861 -0.199604 -0.1624 -0.178122 
95 1 0.346803 0.196766 0.0530932 1.19946 -3.24842 1.01879 0.46693 -0.523568 
96 1 0.300312 0.247185 0.0542837 1.12541 -3.26396 -0.381481 0.341439 -0.662027 
100 1 0.415289 0.23392 0.0493989 0.495952 -3.32478 -0.234212 0.0839111 -0.131742 
497 1 0.402734 0.195325 0.102784 0.87458 -3.33698 0.454618 -0.648239 -0.00801087 
493 1 0.289351 0.20475 0.0976957 1.21395 -3.28575 -0.122251 0.310987 0.850862 
494 1 0.358743 0.241265 0.0981898 0.860543 -3.26243 -0.353042 0.0502703 0.559598 
139 1 0.480165 0.271003 0.0463368 0.557087 -3.28543 -0.172771 -0.136489 0.21181 
498 1 0.471279 0.230665 0.102216 0.560854 -3.26018 -0.575374 -0.50511 0.003256 
104 1 0.52448 0.219582 0.0522214 0.699813 -3.25409 0.795337 0.42744 -0.543812 
541 1 0.534027 0.26258 0.0974566 0.344094 -3.25041 0.320319 0.211163 0.20454 
108 1 0.593419 0.252861 0.0502247 0.310642 -3.3801 0.155426 0.0210868 -0.251581 
107 1 0.645826 0.204985 0.0533943 0.907159 -3.29248 -0.595626 -0.40385 -0.440194 
509 1 0.702698 0.198891 0.100087 0.655341 -3.28584 0.208639 -0.432783 -0.00614405 
112 1 0.706326 0.239231 0.0469393 1.03009 -3.28541 0.529364 0.211058 0.429094 
502 1 0.583421 0.210244 0.100911 0.567507 -3.22771 0.819235 0.552494 0.11463 
115 1 0.822806 0.224525 0.0481858 1.05986 -3.25777 0.633251 -0.441496 0.561052 
111 1 0.758239 0.188037 0.0499487 0.278376 -3.29987 0.398389 0.274928 0.183086 
513 1 0.76778 0.234693 0.0994056 1.12239 -3.28263 -0.349852 -0.406039 -0.251466 
116 1 0.772322 0.275547 0.0503805 0.848647 -3.331 0.0604074 -0.407457 -0.0193297 
517 1 0.837329 0.260895 0.0956275 1.55985 -3.2467 -0.00660668 0.619053 0.394579 
44 1 0.945576 0.203613 0.0465934 1.15249 -3.30116 -0.0961361 0.302377 0.36864 
119 1 0.895305 0.255166 0.0499805 0.557405 -3.30235 -0.150645 -0.0352369 -0.264403 
481 1 0.950426 0.247542 0.0982914 0.23761 -3.24207 0.26136 0.134477 0.0260767 
442 1 -0.00542663 0.201042 0.098695 1.87295 -3.31869 0.475328 -0.40635 0.264719 
478 1 0.887949 0.212608 0.0991274 0.468954 -3.34727 -0.186546 -0.373117 -0.252296 
88 1 0.0764163 0.276126 0.0505318 0.480718 -3.28736 -0.299023 0.446369 -0.251155 
123 1 0.022979 0.326685 0.0491796 0.288634 -3.30013 0.212418 -0.096063 0.072003 
482 1 0.0160173 0.283351 0.0999437 0.376516 -3.34563 0.197185 0.0225758 -0.302742 
128 1 0.0818366 0.364678 0.0489575 0.806258 -3.30648 0.0731146 -0.0237523 0.029325 
127 1 0.137218 0.316898 0.0492107 0.797129 -3.30583 -0.20594 -0.0111164 0.157361 
526 1 0.147915 0.356111 0.0988509 0.93128 -3.32907 -0.320496 -0.303286 0.386019 
132 1 0.206101 0.350315 0.05139 1.35846 -3.24402 -0.706685 -0.0245696 -0.515235 
131 1 0.248098 0.300272 0.0525967 0.428496 -3.34864 0.490443 -0.260086 -0.190557 
529 1 0.19218 0.305538 0.103532 0.760808 -3.27606 0.105766 0.37037 -0.153619 
136 1 0.314221 0.337287 0.0496208 0.75402 -3.25803 -0.48127 -0.753343 0.243862 
135 1 0.361837 0.283277 0.051074 0.522751 -3.30521 -0.0373789 0.257945 -0.52918 
133 1 0.306416 0.291293 -0.00195844 0.325619 -3.23845 0.00410875 0.0813239 0.14965 
140 1 0.429416 0.317039 0.0468711 0.417258 -3.31838 -0.125473 0.171611 -0.247228 
137 1 0.422074 0.274225 -0.00347095 0.530543 -3.34684 -0.0173212 0.315027 0.0718319 
134 1 0.367582 0.324446 -0.00314333 0.914072 -3.30286 0.606791 0.529372 0.178122 
144 1 0.491069 0.352831 0.0503081 0.655106 -3.2982 0.000752316 0.30059 -0.363428 
141 1 0.487703 0.311221 -0.00493218 0.882297 -3.2838 -0.30543 -0.104912 0.252858 
143 1 0.544319 0.306806 0.0504467 1.04363 -3.30193 0.0884715 -0.25518 -0.261866 
542 1 0.547738 0.347296 0.0994445 0.514963 -3.31079 0.566073 0.19877 -0.00798595 
142 1 0.553517 0.341099 0.999359 1.17066 -3.27977 0.492101 0.548558 -0.0104672 
148 1 0.615253 0.339986 0.0498142 1.1582 -3.3116 -0.495732 -0.438467 0.108846 
147 1 0.660784 0.289817 0.0484087 0.366802 -3.28646 -0.230759 -0.205834 0.618087 
545 1 0.600009 0.294935 0.0970947 0.766266 -3.30897 0.390096 0.216969 0.230923 
549 1 0.663176 0.33233 0.104005 1.68347 -3.28176 0.460211 -0.121911 -0.761333 
145 1 0.607896 0.293785 -0.000873038 0.521446 -3.32882 -0.353039 0.118179 -0.0157069 
146 1 0.672677 0.330798 0.996994 0.542056 -3.25493 -0.39131 -0.386502 0.360322 
151 1 0.726248 0.323928 0.049668 0.308274 -3.30278 -0.486786 0.184061 0.283401 
120 1 0.84293 0.304698 0.0498443 0.709636 -3.30887 0.198592 0.0772428 0.147134 
155 1 0.792415 0.357008 0.0513789 0.709279 -3.24116 -0.347691 0.210181 -0.349601 
514 1 0.785776 0.31633 0.0970327 0.735281 -3.34657 -0.0823049 -0.434115 0.723328 
553 1 0.733887 0.363594 0.0999848 0.441897 -3.31295 -0.0281269 0.131688 -0.0372796 
153 1 0.782956 0.316616 0.00157457 0.729179 -3.25144 -0.392094 -0.887224 -0.286052 
84 1 0.955678 0.293838 0.0478638 1.40122 -3.32522 0.130013 -0.438808 0.283661 
159 1 0.908489 0.344494 0.048715 1.33173 -3.25753 0.25224 -0.504432 -0.48821 
518 1 0.90322 0.29472 0.100155 1.03224 -3.2968 -0.156017 0.567494 -0.188514 
521 1 0.968082 0.332085 0.0989762 0.566614 -3.31011 -0.424313 0.216659 -0.104801 
163 1 0.0322257 0.41518 0.0558438 2.15289 -3.16611 0.0776213 -0.421008 -0.906119 
168 1 0.0929252 0.448925 0.0512783 0.916183 -3.27063 0.508804 0.415465 -0.304485 
165 1 0.0887177 0.408287 1.00185 0.458708 -3.35144 -0.188983 -0.020642 -0.146731 
522 1 0.0250098 0.371739 0.0988054 0.93985 -3.30543 0.392249 -0.49111 0.143747 
565 1 0.0967646 0.404224 0.100624 1.4986 -3.28062 -0.682666 -0.255652 0.176035 
167 1 0.146696 0.397773 0.0489351 0.780722 -3.26212 0.310394 0.16357 -0.180886 
172 1 0.208484 0.434731 0.0501128 0.656626 -3.26037 0.91362 -0.219726 0.19657 
166 1 0.155759 0.442552 1.00476 0.989628 -3.27039 -0.378956 -0.21952 -0.84217 
171 1 0.265606 0.385833 0.0483291 0.397509 -3.29613 0.0409631 0.235003 0.110144 
170 1 0.275606 0.426503 -0.00166903 0.825167 -3.35001 -0.191599 0.378453 0.0388807 
569 1 0.20229 0.395383 0.0986364 1.7068 -3.2489 0.464958 -0.265114 -0.106905 
566 1 0.152873 0.442279 0.0983548 0.425109 -3.23751 0.151177 0.235132 0.421991 
176 1 0.327641 0.421132 0.0518963 0.617674 -3.33134 0.6048 0.00599086 0.0812948 
175 1 0.376648 0.367974 0.049547 0.378325 -3.27581 0.606419 0.531209 -0.235376 
180 1 0.397216 0.455354 0.0512201 0.651236 -3.343 -0.472355 -0.170615 0.0762164 
173 1 0.31994 0.378379 -0.00616463 1.3993 -3.18083 0.209823 -0.138844 0.875831 
179 1 0.441303 0.405275 0.045676 1.12462 -3.30508 0.0972617 -0.341044 0.458211 
183 1 0.558475 0.385417 0.050355 0.59439 -3.37777 0.170115 0.374677 -0.448697 
184 1 0.509862 0.437674 0.0491274 0.373468 -3.32327 0.0320251 -0.0423064 0.0411059 
181 1 0.503397 0.393627 -0.00774013 2.27301 -3.29725 0.471061 -0.0578504 0.964136 
185 1 0.61996 0.374853 0.998963 1.36135 -3.33964 0.116057 0.655187 -0.0352645 
187 1 0.626226 0.421535 0.0511839 0.381161 -3.34227 -0.326307 0.00348862 -0.312281 
152 1 0.677881 0.374744 0.0512152 0.672369 -3.29154 -0.0189756 -0.312942 -0.327592 
550 1 0.683744 0.415123 0.0984877 0.400151 -3.27927 0.203922 -0.060555 0.476855 
189 1 0.685073 0.416893 1.0016 1.2191 -3.27432 0.307465 -0.65682 0.464749 
546 1 0.618527 0.383423 0.101219 0.656904 -3.31995 -0.655884 -0.447277 -0.167498 
156 1 0.744541 0.406111 0.0532936 0.708536 -3.36007 0.292585 0.0752903 -0.38063 
195 1 0.809631 0.44222 0.0500532 0.584007 -3.3052 0.0269929 0.196975 0.208121 
154 1 0.801471 0.39658 0.998193 1.11725 -3.26898 -0.548561 0.102953 0.240728 
593 1 0.745497 0.450186 0.100303 0.92098 -3.2967 0.892915 -0.31984 0.132194 
554 1 0.803664 0.397686 0.103856 1.44737 -3.32303 -0.218474 0.152167 -0.167293 
160 1 0.853247 0.393814 0.0524109 1.60219 -3.22855 0.160748 -0.134012 -0.526691 
197 1 0.860984 0.43118 -0.00351302 1.99771 -3.28658 0.717418 0.863248 0.244274 
124 1 0.970756 0.3799 0.0454587 1.86073 -3.25237 0.314676 -0.252088 0.283802 
199 1 0.918068 0.427142 0.04946 0.705391 -3.28138 0.369229 0.119684 -0.0696979 
597 1 0.864216 0.435458 0.0997083 0.705115 -3.27168 -0.155585 -0.318097 0.202456 
558 1 0.914113 0.385003 0.0984969 0.461885 -3.30886 0.0671183 -0.14511 0.281831 
562 1 0.0389005 0.456495 0.0985502 0.39671 -3.26805 -0.227125 0.271437 0.586246 
203 1 0.0444246 0.502838 0.0508598 0.771409 -3.3249 -0.164209 -0.354298 0.0955504 
208 1 0.113471 0.533652 0.0464318 1.01815 -3.30231 0.294746 0.269145 0.339122 
605 1 0.102349 0.492094 0.100877 0.444704 -3.29472 -0.176025 0.1073 -0.394479 
205 1 0.106965 0.489918 1.00144 0.698946 -3.311 0.242554 0.441981 -0.131269 
202 1 0.0563813 0.540256 1.00252 1.80241 -3.25688 0.223855 0.651252 -0.625355 
207 1 0.162269 0.482753 0.0529747 0.558532 -3.28278 -0.341406 0.356206 -0.210653 
212 1 0.224755 0.517969 0.051492 0.593751 -3.33561 0.317265 0.246935 0.0712902 
209 1 0.222054 0.475651 1.00241 0.744712 -3.31042 0.357123 0.122544 -0.249143 
211 1 0.276486 0.467343 0.0510715 0.736252 -3.3057 0.00976462 0.358588 -0.0401525 
206 1 0.175498 0.524359 0.000363994 1.46698 -3.24664 -0.466658 0.0610769 0.178424 
215 1 0.343277 0.505431 0.0516717 0.216015 -3.30531 -0.273266 -0.160607 -0.366797 
220 1 0.407528 0.541105 0.0500233 1.22061 -3.31472 0.299139 -0.578242 -0.437583 
617 1 0.399494 0.497202 0.0993288 0.345514 -3.33902 0.241696 0.155402 0.174796 
614 1 0.348203 0.545267 0.097441 0.477923 -3.29678 0.249552 0.183437 0.362155 
174 1 0.336324 0.466142 1.00349 1.4734 -3.32211 -0.23452 -0.344401 -0.335762 
213 1 0.284671 0.516516 0.9988 1.3654 -3.30558 -0.765208 -0.803916 0.112687 
214 1 0.350725 0.543982 -0.00256535 0.97603 -3.27266 0.582082 0.384086 0.401375 
219 1 0.463672 0.488752 0.0552484 1.17127 -3.29018 -0.349023 0.0600922 -0.558475 
621 1 0.469498 0.531453 0.100116 0.314811 -3.34761 0.0839724 -0.28011 0.0332364 
582 1 0.523363 0.480071 0.0982311 0.560431 -3.26743 -0.203511 0.288606 0.229906 
223 1 0.532567 0.519209 0.0505007 1.03689 -3.28979 -0.471907 0.457022 0.406983 
221 1 0.523664 0.476661 0.000935973 0.676268 -3.28333 -0.395517 0.286102 0.0088579 
191 1 0.69425 0.455952 0.0491525 0.440427 -3.24804 -0.24732 -0.11459 0.126628 
188 1 0.580439 0.472839 0.0498516 0.57644 -3.2915 -0.255662 -0.434592 0.0584851 
586 1 0.591515 0.514145 0.102009 0.882213 -3.29444 -0.495913 -0.00228316 -0.55226 
192 1 0.646672 0.503596 0.0488692 1.1789 -3.32279 -0.0408647 0.668151 0.200712 
231 1 0.711345 0.541642 0.0511438 0.89378 -3.29611 -0.648527 -0.227123 -0.065023 
589 1 0.632984 0.461648 0.101816 0.757845 -3.24151 0.535983 0.229402 -0.628233 
590 1 0.698277 0.49508 0.100414 1.00027 -3.27413 -0.139362 0.826024 0.310017 
186 1 0.635943 0.463947 1.00129 0.389971 -3.28277 -0.1782 -0.0420184 -0.013157 
225 1 0.582185 0.516453 1.00089 1.55293 -3.23672 0.321704 -0.329349 -0.0312543 
190 1 0.70284 0.49737 1.00103 0.760233 -3.25089 -0.0662361 0.38271 0.25212 
196 1 0.755755 0.492594 0.0542221 0.868968 -3.28766 0.316215 0.0950962 -0.46802 
194 1 0.816966 0.487399 1.00293 1.18088 -3.22471 -0.963327 -1.11258 -0.277902 
235 1 0.82364 0.526681 0.0485685 0.838131 -3.26279 -0.738739 0.252254 0.401268 
594 1 0.815477 0.485816 0.0992921 0.483754 -3.31578 -0.396488 -0.340217 0.0286558 
633 1 0.760437 0.535045 0.103781 1.01186 -3.30667 0.128151 -0.0387313 -0.351361 
200 1 0.879341 0.4767 0.0495506 2.42221 -3.24657 -0.686711 -0.234049 -0.305472 
164 1 0.982263 0.463568 0.0500196 0.467152 -3.3413 -0.205476 0.21275 0.0444387 
239 1 0.934638 0.51578 0.0488809 0.479067 -3.25405 0.130003 0.0246273 -0.279694 
601 1 0.984166 0.509573 0.0999409 0.523906 -3.33744 0.346838 -0.167505 -0.0119737 
201 1 0.989701 0.511019 0.997548 0.688292 -3.19157 0.413358 -0.52656 -0.0456834 
198 1 0.929877 0.475701 -0.00405794 1.71032 -3.3115 -0.40328 -0.872398 0.0842664 
637 1 0.878089 0.519183 0.0968583 0.653084 -3.26708 0.160257 0.480701 0.478182 
598 1 0.924059 0.471267 0.102882 0.996756 -3.24842 0.723643 -0.213135 -0.044209 
204 1 -0.00565001 0.554275 0.0463242 0.859011 -3.22779 0.21045 -0.443259 0.434733 
243 1 0.0583345 0.587821 0.0474544 0.806981 -3.30878 0.616121 0.0919514 0.0884238 
641 1 0.00417042 0.593512 0.0974904 0.517916 -3.32197 -0.213213 0.339594 0.300817 
244 1 0.0115314 0.639864 0.0492402 0.94148 -3.33013 -0.0891526 -0.415086 0.0447792 
242 1 0.0688843 0.629427 1.00127 0.655804 -3.35164 0.327419 0.154017 -0.259429 
248 1 0.128221 0.622187 0.0515296 0.300182 -3.31403 -0.234875 -0.0965624 -0.509097 
642 1 0.0691176 0.628461 0.0995699 0.419758 -3.29893 0.0708397 -0.0222825 -0.096798 
245 1 0.124353 0.580933 1.00205 0.708401 -3.34817 -0.445743 -0.241038 0.0203847 
247 1 0.179352 0.57135 0.0525134 0.811983 -3.27877 -0.323631 -0.328107 -0.304171 
251 1 0.240775 0.605169 0.0501799 0.372024 -3.27352 0.0444888 -0.111235 0.0118334 
249 1 0.185664 0.6186 -0.00313853 2.12806 -3.29413 0.0520957 -0.412948 0.374684 
210 1 0.231261 0.563779 0.999546 1.05439 -3.29277 0.594036 0.291618 0.288148 
646 1 0.179732 0.616801 0.100678 1.8317 -3.30463 0.487066 -0.437676 0.467975 
216 1 0.28892 0.553895 0.0494399 0.38164 -3.33342 0.093145 0.0237829 -0.0179456 
255 1 0.357804 0.587079 0.0510217 0.349413 -3.31086 0.116511 0.110835 -0.137078 
653 1 0.299781 0.594165 0.0994037 0.18036 -3.29222 0.117183 -0.0137753 0.0875202 
256 1 0.305339 0.638375 0.0490743 1.01757 -3.27489 0.648812 0.0678287 0.320078 
253 1 0.301586 0.597337 1.00503 1.9004 -3.30621 -0.127068 -0.476014 -0.795643 
254 1 0.370421 0.62739 0.999525 0.419076 -3.32125 -0.115779 -0.0391817 0.148542 
259 1 0.424231 0.620412 0.0498529 0.347131 -3.37635 0.336573 0.0347738 0.0999144 
224 1 0.478111 0.570858 0.0500965 0.436159 -3.30613 0.197802 -0.102236 -0.0547235 
228 1 0.540722 0.608025 0.0534921 0.770381 -3.27957 -0.0169713 -0.273309 -0.235289 
625 1 0.536999 0.565051 0.101074 0.353349 -3.368 -0.0837484 -0.0852065 -0.109714 
622 1 0.484909 0.614499 0.101927 0.277962 -3.32515 0.17233 0.0218157 -0.27424 
227 1 0.592051 0.556646 0.0507584 0.332288 -3.28932 -0.29837 0.164019 0.427318 
629 1 0.653679 0.549288 0.100565 0.414482 -3.29567 0.130154 0.053491 -0.495782 
232 1 0.656672 0.590818 0.0493085 0.544783 -3.3164 0.130688 0.445234 0.0991207 
626 1 0.599566 0.603939 0.0983931 1.07612 -3.28756 -0.107746 -0.697175 0.331338 
271 1 0.717083 0.630835 0.0469251 0.654206 -3.32003 -0.403605 -0.128855 0.24949 
236 1 0.76802 0.579449 0.0511183 0.737822 -3.25235 0.324249 0.0276976 -0.0179434 
275 1 0.832423 0.615345 0.0502489 0.548051 -3.29304 0.451416 -0.173016 -0.148556 
240 1 0.88413 0.562748 0.0444759 1.2857 -3.28774 -0.062583 0.269878 0.29364 
279 1 0.945715 0.600919 0.0469812 0.244289 -3.3243 0.19616 0.326188 0.216585 
638 1 0.93675 0.560374 0.0957694 0.711629 -3.29493 -0.0556782 -0.209535 0.184895 
677 1 0.889413 0.607693 0.0985695 0.251775 -3.30856 -0.138656 0.284776 -0.453113 
283 1 0.0810742 0.673988 0.0519752 0.872413 -3.28806 -0.541474 -0.347931 -0.359641 
284 1 0.022778 0.72185 0.0478626 0.982158 -3.31819 0.205596 -0.181165 0.310475 
285 1 0.087795 0.712876 1.00239 0.740053 -3.29176 -0.107914 0.0367517 -0.292872 
685 1 0.132983 0.664164 0.100504 0.786161 -3.26819 0.216117 0.188618 -0.0225977 
246 1 0.134538 0.665968 1.00043 0.357384 -3.31535 -0.00357392 -0.287421 -0.0987717 
682 1 0.08344 0.71998 0.0989754 2.44242 -3.2864 0.206421 -0.64394 -0.0276756 
281 1 0.0188255 0.678471 1.00013 0.545866 -3.29948 0.42908 -0.546016 -0.202432 
252 1 0.197883 0.653027 0.0526467 1.45946 -3.313 -0.0380001 0.382808 -0.451663 
287 1 0.147787 0.703956 0.0498237 0.634723 -3.26013 0.0959271 0.45938 -0.206519 
289 1 0.204418 0.695541 0.998167 0.407127 -3.32037 -0.169249 0.340949 -0.193958 
250 1 0.257002 0.646044 -0.00262451 0.705699 -3.27928 -0.573386 -0.181072 -0.14584 
650 1 0.255757 0.643234 0.102316 2.33931 -3.26437 -0.758146 0.258618 -0.294167 
291 1 0.263354 0.688111 0.0427802 1.99847 -3.23348 -0.335444 0.14838 0.42511 
290 1 0.272011 0.728845 -0.0056854 1.67956 -3.26432 -0.436146 -0.170529 0.054618 
295 1 0.32385 0.725796 0.0515569 2.33026 -3.25062 -0.00779359 -0.600363 0.0346146 
260 1 0.377765 0.671122 0.0512716 0.530733 -3.31902 -0.153008 -0.184219 0.25263 
658 1 0.383514 0.712125 0.100517 0.604023 -3.34198 0.0358619 -0.0176267 -0.0678517 
293 1 0.323664 0.67595 -0.000515089 0.777769 -3.25051 0.160419 0.322051 -0.17104 
264 1 0.447259 0.705315 0.0498085 1.10586 -3.21999 -0.688575 -0.240419 0.433567 
263 1 0.490126 0.656309 0.0485809 0.718599 -3.31134 0.121491 -0.175912 0.241842 
258 1 0.434115 0.663849 1.00174 0.858149 -3.25153 0.276214 -0.211162 0.0944736 
262 1 0.494773 0.704061 -0.00198722 1.8248 -3.2352 -0.148144 -0.412533 -0.0778587 
268 1 0.552591 0.694283 0.0436439 2.04549 -3.33114 0.310577 -0.104955 0.456321 
265 1 0.551549 0.64744 1.0047 2.10454 -3.30004 -0.159372 0.261309 -0.930657 
662 1 0.50086 0.700489 0.0995738 0.488224 -3.29251 -0.543386 -0.298164 0.0948455 
267 1 0.606737 0.643108 0.0495401 0.492484 -3.27273 0.267565 0.022352 0.0146916 
266 1 0.615806 0.690212 -0.00278163 1.46997 -3.27064 -0.559614 -0.805622 -0.0486351 
272 1 0.667676 0.680814 0.046634 0.507618 -3.24652 -0.203053 -0.55056 0.144728 
709 1 0.67504 0.717661 0.0980788 1.2287 -3.29682 0.374683 0.570588 0.293553 
307 1 0.624214 0.728734 0.0459024 1.19331 -3.2653 -0.57358 -0.0205736 0.214098 
270 1 0.724655 0.671552 1.00099 0.535249 -3.29674 -0.198873 0.0699176 -0.354346 
311 1 0.730447 0.713571 0.0486517 0.415419 -3.28911 0.189319 0.519409 0.11359 
276 1 0.789764 0.665159 0.0484431 1.88714 -3.20041 -0.916376 0.213909 0.0443863 
315 1 0.849868 0.701674 0.0465742 0.769531 -3.25304 -0.375952 -0.227488 0.268484 
313 1 0.786957 0.708076 1.00215 0.77481 -3.30756 0.0547951 0.142397 -0.653337 
274 1 0.834226 0.656902 0.99752 1.07846 -3.27325 1.00854 0.0946028 -0.137892 
280 1 0.896092 0.652818 0.0479921 0.489551 -3.25661 -0.509862 -0.663322 -0.183773 
319 1 0.957216 0.684584 0.0446559 1.28228 -3.22241 0.60378 0.507754 0.262865 
278 1 0.952253 0.640007 0.996758 0.531634 -3.31245 0.333637 0.248584 0.307061 
317 1 0.904404 0.690838 -0.00771156 1.43282 -3.35545 0.0285164 0.115896 0.327341 
288 1 0.0986084 0.753489 0.0470413 1.83287 -3.31784 -0.162915 0.252937 0.215612 
323 1 0.04561 0.805003 0.0507606 0.837804 -3.3157 -0.651908 -0.0622412 -0.382308 
721 1 0.0329077 0.764443 0.0944741 1.21975 -3.26025 -0.224172 -0.0200519 0.449782 
325 1 0.101472 0.80095 1.0018 1.14476 -3.38008 0.0578687 -0.408431 -0.286455 
292 1 0.215639 0.738496 0.0466476 0.738288 -3.34804 -0.475327 -0.0686939 0.19673 
327 1 0.161601 0.790112 0.0548444 1.4661 -3.30026 -0.0860873 -0.394807 -0.816234 
690 1 0.222421 0.784925 0.100245 1.29248 -3.25349 -0.156413 -0.914018 0.0769202 
286 1 0.152566 0.750198 0.997217 0.716256 -3.26248 0.148125 -0.306686 0.557102 
296 1 0.27822 0.772104 0.051055 0.394761 -3.30081 0.0499646 0.663214 -0.0653919 
333 1 0.283662 0.81542 1.00101 0.566259 -3.32959 -0.00752927 -0.342476 0.310038 
331 1 0.22782 0.822457 0.0519494 0.236724 -3.30113 0.296181 0.229825 -0.178169 
694 1 0.288318 0.816029 0.101081 0.439265 -3.28917 -0.0250531 -0.296367 0.0947194 
300 1 0.347378 0.807505 0.0524097 0.637313 -3.28085 -0.819037 -0.574066 -0.19327 
299 1 0.395683 0.752993 0.0521392 1.12567 -3.33897 0.214576 0.502917 -0.377719 
698 1 0.404211 0.799395 0.0983846 0.978849 -3.25016 -0.402631 -0.177901 0.584361 
294 1 0.333126 0.760971 1.00213 1.5198 -3.30121 0.826352 1.01059 -0.267499 
298 1 0.404595 0.798328 1.00312 0.494537 -3.28618 -0.605712 -0.385367 -0.13578 
304 1 0.463367 0.793016 0.0520931 0.943931 -3.20288 -0.816419 -0.419351 -0.520374 
701 1 0.449226 0.748558 0.102061 0.417592 -3.2768 -0.10754 -0.211513 0.116693 
301 1 0.449849 0.75244 -0.00298615 1.35424 -3.30081 -0.0596156 -0.503961 0.559838 
303 1 0.502217 0.742971 0.0520127 1.45232 -3.26433 0.691006 0.275992 -0.445099 
702 1 0.513847 0.781919 0.0973687 1.40275 -3.25763 0.746289 0.235559 0.913819 
705 1 0.566119 0.732076 0.0971877 1.10351 -3.28385 0.0464614 0.879955 0.0498117 
305 1 0.560514 0.736988 0.99996 0.684125 -3.31666 0.441101 0.234224 -0.0990867 
302 1 0.515938 0.786888 0.998967 0.482249 -3.25856 -0.087995 -0.18397 0.41308 
308 1 0.575681 0.77767 0.0473557 0.972661 -3.33273 -0.454184 0.0614748 0.571326 
312 1 0.676932 0.768773 0.0508695 2.37745 -3.25174 0.82715 -0.224857 -0.552681 
347 1 0.636303 0.818112 0.0493783 0.914659 -3.29954 -0.851563 0.0842254 -0.0303616 
706 1 0.63106 0.770083 0.101286 0.749815 -3.25726 -0.409786 -0.0559887 0.23426 
349 1 0.694354 0.809029 0.998892 0.473236 -3.30073 -0.306111 0.268667 -0.271404 
745 1 0.57945 0.817376 0.102734 1.70784 -3.36518 -0.126925 0.448215 -0.373634 
749 1 0.690963 0.809402 0.0985925 0.500738 -3.29604 -0.271826 -0.170808 0.36514 
351 1 0.74769 0.800798 0.0467752 0.585501 -3.25668 0.0542182 0.152483 0.865427 
316 1 0.794227 0.749801 0.0498546 0.449386 -3.31597 0.29991 0.151964 0.126009 
714 1 0.85529 0.745557 0.0972147 0.599267 -3.31625 -0.196792 -0.469106 0.0340642 
353 1 0.801596 0.794198 1.00056 0.603657 -3.24749 1.08698 0.184066 -0.241157 
314 1 0.852757 0.741231 -0.000700367 0.541032 -3.33394 0.22697 0.379327 -0.279003 
355 1 0.862683 0.784726 0.0463402 0.501938 -3.35718 -0.0908069 0.278139 0.160717 
320 1 0.912809 0.732132 0.0461909 1.09114 -3.28084 0.651868 0.826673 -0.0712369 
359 1 0.975515 0.77299 0.0480363 0.509947 -3.33044 -0.049315 -0.0803042 -0.0377803 
757 1 0.919337 0.779262 0.0967495 0.344529 -3.27609 -0.0461287 0.0978046 0.134053 
328 1 0.108677 0.838754 0.052 0.129923 -3.2701 0.336838 0.0260352 -0.151316 
363 1 0.0605251 0.88643 0.0526833 0.759878 -3.29045 0.0049592 0.514543 -0.124959 
365 1 0.118367 0.881562 0.00233225 0.374357 -3.34019 0.260219 -0.324876 0.0193786 
332 1 0.175714 0.871111 0.0550559 0.516095 -3.35102 0.236333 0.292523 -0.352768 
330 1 0.233276 0.866474 1.00249 0.748353 -3.3251 -0.0576161 -0.12972 -0.213741 
336 1 0.242426 0.906795 0.048871 1.10921 -3.2761 -0.307351 -0.674565 0.999365 
326 1 0.171828 0.829868 0.00342748 0.804125 -3.36377 -0.230101 0.0908127 -0.375242 
335 1 0.294445 0.857911 0.0488275 0.743282 -3.35243 -0.225742 -0.111292 0.212309 
340 1 0.366716 0.887154 0.0522713 2.48253 -3.29351 -0.349777 0.311563 -0.4795 
337 1 0.354121 0.843407 1.00226 1.51679 -3.29649 0.0469069 0.630176 -0.16267 
339 1 0.413088 0.837963 0.0523282 1.27943 -3.24475 0.255283 0.724361 -0.0696731 
738 1 0.419341 0.879922 0.101136 1.67321 -3.2642 0.0488804 0.569731 -0.256093 
334 1 0.304975 0.895241 -0.00096655 1.56254 -3.25365 -0.151904 -0.491457 0.320713 
344 1 0.473317 0.878659 0.0469274 0.952277 -3.37466 -0.14902 0.115056 0.305348 
343 1 0.522648 0.828273 0.0488801 0.354726 -3.29472 0.280155 0.0868719 0.398899 
383 1 0.532005 0.920924 0.052283 3.11162 -3.25954 -0.077687 -0.741515 -0.664523 
742 1 0.526649 0.871525 0.100143 0.541893 -3.30848 0.0708308 0.0226488 -0.258139 
348 1 0.57938 0.866785 0.0457892 1.41669 -3.29897 0.378617 0.236314 0.538498 
352 1 0.699935 0.850465 0.050214 0.46171 -3.25212 0.0831461 0.265041 -0.138993 
387 1 0.648757 0.89942 0.046343 0.59942 -3.32785 0.0790156 0.214612 0.310671 
385 1 0.584968 0.908834 -0.00318918 1.58911 -3.33234 0.208415 -0.170201 0.216524 
356 1 0.81362 0.839917 0.0482163 0.879808 -3.3365 0.198321 -0.526882 0.277231 