ITEM: TIMESTEP
6000
ITEM: NUMBER OF ATOMS
4000
ITEM: BOX BOUNDS pp pp pp
1.1444295980737411e+00 3.9355570401925689e+01
-5.7483273941285540e-01 4.1074832739412429e+01
-5.7533458325735498e-01 4.1075334583256982e+01
ITEM: ATOMS id type xs ys zs c_csym c_peratom fx fy fz 
4 1 0.00160234 0.0498829 0.0491872 0.742147 -3.3471 -0.351276 0.104337 0.493753 
8 1 0.0968474 0.0543879 0.0516922 0.704741 -3.29077 0.189607 -0.5357 -0.0394012 
402 1 0.050019 0.0528174 0.100699 0.870531 -3.27856 -0.311973 -0.297677 -0.0139186 
2 1 0.0485596 0.0530559 0.00266486 0.381936 -3.27705 0.225475 -0.427638 -0.324152 
5 1 0.101178 0.00349549 0.00192583 0.787981 -3.31329 -0.179247 -0.548226 0.219386 
45 1 0.0987152 0.102706 -0.00177331 0.729355 -3.31849 0.356552 -0.041513 0.474423 
12 1 0.199649 0.0497848 0.0487758 0.451604 -3.28021 -0.104772 -0.113637 0.647229 
47 1 0.149208 0.098107 0.0499909 0.734265 -3.33664 0.135745 0.652063 -0.0170721 
406 1 0.1489 0.0512502 0.104323 0.679671 -3.34739 -0.00852735 -0.395695 -0.528322 
49 1 0.200903 0.0972544 -0.00330239 1.81849 -3.27245 -0.806381 0.700833 0.439724 
16 1 0.301197 0.0464039 0.0497319 1.15096 -3.32239 -0.360701 0.39042 0.0161603 
51 1 0.245514 0.0977985 0.0486743 0.581741 -3.27588 0.132984 0.228617 0.0533385 
410 1 0.251038 0.0467602 0.0999806 0.55325 -3.28822 -0.391994 0.157425 0.105522 
11 1 0.246066 -0.000446098 0.0541284 1.08424 -3.27978 0.608314 0.0340439 -0.556056 
413 1 0.299796 -0.00233205 0.101049 0.341383 -3.32656 0.0883065 0.176104 -0.0892273 
20 1 0.395778 0.048026 0.0453928 1.74278 -3.31248 0.194496 0.269332 0.528771 
55 1 0.346389 0.100683 0.0494204 0.519384 -3.31828 0.291136 -0.188566 -0.371331 
414 1 0.350333 0.0540722 0.102399 1.85368 -3.2564 -0.858431 -0.974788 -0.384893 
457 1 0.39558 0.0971346 0.0960491 1.2608 -3.21221 0.6758 0.70926 0.222112 
417 1 0.398702 0.00174722 0.10173 0.474473 -3.35803 0.0618885 -0.200718 -0.376682 
24 1 0.501016 0.0531419 0.052446 0.61525 -3.3026 -0.356365 -0.207593 -0.140928 
418 1 0.446781 0.0512028 0.0995521 0.460875 -3.34301 0.194762 -0.0701669 0.153088 
461 1 0.499323 0.100973 0.101694 0.273206 -3.36628 0.0875306 -0.0290053 -0.142837 
23 1 0.548347 0.000738301 0.0529644 0.580823 -3.28847 0.0818398 -0.112957 -0.657477 
22 1 0.547067 0.0518896 0.000797764 0.458733 -3.35933 -0.0024924 -0.240188 -0.0229711 
18 1 0.453221 0.0499904 0.000207123 1.02164 -3.35417 -0.38068 0.15911 -0.0791637 
21 1 0.49904 -0.00118733 0.000939623 0.605244 -3.35608 0.0483623 0.341999 -0.0497149 
28 1 0.598902 0.0487812 0.0514909 0.304453 -3.34263 0.3357 0.199054 -0.379731 
67 1 0.65062 0.0996763 0.0491604 0.176864 -3.31638 -0.242311 -0.290224 0.351087 
26 1 0.651616 0.0538559 -0.00161573 0.883615 -3.30879 -0.42692 -0.410539 0.278107 
27 1 0.64912 0.000111452 0.0488115 0.111161 -3.293 -0.0193132 -0.147385 0.186522 
32 1 0.69873 0.0486484 0.0510547 0.493317 -3.32044 0.322111 0.248751 -0.31298 
71 1 0.752042 0.0997983 0.0520165 0.471331 -3.32234 -0.190475 0.146589 -0.491117 
430 1 0.751468 0.0493239 0.0985421 0.14226 -3.34444 0.134162 -0.108153 -0.0121504 
30 1 0.749047 0.050586 0.00131365 0.392863 -3.35201 -0.142189 0.173405 -0.351121 
29 1 0.698031 0.00312022 -0.00168452 0.313186 -3.35494 0.162416 -0.415233 0.206038 
69 1 0.699353 0.101271 -0.000205205 0.367631 -3.34788 0.524625 0.15777 -0.126403 
36 1 0.800324 0.0516827 0.0447854 1.11521 -3.25783 0.0874504 -0.307735 0.608147 
75 1 0.849906 0.0984222 0.0496213 0.481646 -3.28653 0.185546 0.361439 0.0218532 
73 1 0.800564 0.101554 0.000856934 0.382756 -3.35103 -0.212652 0.05375 -0.344147 
34 1 0.852424 0.0502641 0.000378901 0.182062 -3.34958 -0.180875 0.080903 -0.205859 
40 1 0.900401 0.052857 0.051907 0.670412 -3.31918 0.0956284 -0.453139 0.0216039 
79 1 0.948704 0.103205 0.0479051 0.919705 -3.22085 0.0152589 -0.600055 0.303449 
38 1 0.95013 0.0516383 0.00208271 0.240994 -3.31697 0.151895 -0.140872 -0.0339607 
39 1 0.94882 0.00197738 0.0520213 0.723437 -3.36852 0.224305 -0.213559 -0.109137 
37 1 0.90218 0.00162231 0.000462837 0.337976 -3.33765 -0.195354 -0.0601145 0.056326 
43 1 0.0496489 0.10366 0.0485305 0.791696 -3.26108 -0.160633 -0.305504 0.460566 
48 1 0.0977279 0.150286 0.0512668 0.268826 -3.31507 0.39616 0.122394 -0.0887171 
83 1 0.0456802 0.2017 0.0515976 0.616086 -3.35928 -0.351278 -0.250504 0.0703544 
42 1 0.052424 0.152615 0.00129539 0.784847 -3.33887 -0.547554 0.101777 -0.357519 
44 1 -0.00352984 0.147231 0.0495483 0.790706 -3.30364 0.52256 0.862475 0.297644 
52 1 0.197932 0.151296 0.0473115 0.568086 -3.3443 -0.335904 -0.218443 0.506226 
446 1 0.146707 0.149381 0.101179 0.344084 -3.30999 0.388568 0.113759 -0.249971 
489 1 0.201063 0.197642 0.100644 0.611445 -3.3304 -0.557074 0.18018 -0.2117 
46 1 0.149648 0.156218 0.000587421 1.20171 -3.32105 -0.253123 -0.849543 -0.0268848 
453 1 0.293385 0.096492 0.0955751 2.61174 -3.28758 0.702642 0.402231 0.747579 
56 1 0.298379 0.148335 0.0530715 0.911226 -3.29208 -0.302396 0.163072 -0.632138 
450 1 0.245885 0.147156 0.0996369 0.579201 -3.29068 0.298261 0.167215 0.205711 
60 1 0.398633 0.149522 0.0509139 0.398094 -3.32467 0.0483137 0.364711 -0.599075 
454 1 0.34914 0.151042 0.0960282 1.01153 -3.28586 -0.227228 -0.174995 0.860654 
57 1 0.401015 0.101719 -0.00211064 0.81641 -3.34598 -0.161471 -0.203464 0.66485 
59 1 0.44676 0.101611 0.0509349 0.471691 -3.33587 0.274111 -0.314064 -0.173053 
63 1 0.550367 0.0987653 0.0511473 0.221597 -3.2905 0.0925553 0.384065 0.292806 
64 1 0.499756 0.151065 0.0515373 0.181964 -3.29084 0.149275 -0.111679 0.0428054 
458 1 0.448492 0.150813 0.0973912 0.557122 -3.29586 0.299774 -0.207775 0.312761 
462 1 0.549863 0.150147 0.100616 0.184965 -3.35773 0.308493 -0.08888 -0.272386 
501 1 0.502148 0.199312 0.0973771 0.926554 -3.28135 0.127271 -0.160921 0.526486 
58 1 0.454507 0.152235 0.00135982 1.13586 -3.29459 -0.931013 0.0539796 -0.226631 
68 1 0.601506 0.149648 0.0475442 0.568141 -3.2623 -0.319462 -0.00833234 0.986538 
107 1 0.649822 0.199418 0.0501114 0.418507 -3.29914 0.302291 0.193241 0.148531 
65 1 0.597871 0.10072 0.00143166 0.236228 -3.29459 0.304364 -0.451951 -0.313497 
66 1 0.647415 0.150283 0.00189845 0.898576 -3.26186 0.696181 0.00195399 -0.784424 
72 1 0.699439 0.145878 0.049874 1.34393 -3.32403 0.414918 0.687023 -0.115879 
111 1 0.752378 0.202098 0.050159 0.447694 -3.3137 -0.390622 -0.135598 -0.222212 
70 1 0.75386 0.1536 0.000573862 0.764343 -3.33926 0.317081 -0.492579 0.259515 
76 1 0.803396 0.149718 0.0528753 0.846948 -3.30097 -0.230308 0.153983 -0.559666 
115 1 0.852483 0.205205 0.0488008 1.15829 -3.29616 -0.0965995 -0.623327 0.161051 
513 1 0.801591 0.198175 0.0965601 0.828805 -3.24511 -0.0948436 0.579817 0.392105 
74 1 0.849002 0.151474 0.00229399 0.458422 -3.34188 -0.188904 0.111234 -0.0383962 
80 1 0.897825 0.150654 0.0503687 0.473597 -3.3428 -0.154726 0.100996 0.233777 
119 1 0.947554 0.199578 0.05427 0.437166 -3.33354 0.400257 0.205032 -0.174523 
478 1 0.94721 0.148096 0.10284 0.325047 -3.29026 0.0745467 0.40025 -0.0957549 
117 1 0.903741 0.201334 0.00330673 1.0528 -3.28593 -0.426363 0.0816326 -0.448198 
485 1 0.0989248 0.199324 0.096241 0.76428 -3.30511 -0.3052 0.08235 0.51653 
88 1 0.0935413 0.251347 0.0498876 1.24938 -3.28194 0.67998 0.00412406 0.203912 
482 1 0.0497229 0.252379 0.101647 0.465398 -3.31713 0.00666494 -0.104018 -0.340032 
525 1 0.101859 0.302497 0.0990905 0.713638 -3.31962 0.0515647 -0.726629 0.418654 
84 1 -0.00106796 0.254646 0.0495708 0.733814 -3.36624 0.113071 -0.409093 -0.0115844 
125 1 0.0967825 0.301319 0.00146956 0.859423 -3.3466 0.269787 -0.221783 -0.482417 
82 1 0.0488303 0.248099 -0.000967539 0.944762 -3.27291 -0.438425 0.524399 -0.147035 
87 1 0.147709 0.20219 0.0501618 0.466326 -3.33907 0.424449 -0.0521836 -0.00165555 
92 1 0.203119 0.24916 0.0468843 0.887422 -3.32607 -0.446774 0.000275521 0.550061 
86 1 0.148657 0.250616 0.00199172 0.402148 -3.32203 0.0289041 0.0338518 -0.13907 
91 1 0.249325 0.198043 0.0498877 0.305717 -3.28892 -0.252294 0.182566 -0.386045 
493 1 0.29367 0.198902 0.0975739 0.86919 -3.29333 0.617424 -0.137746 0.64311 
93 1 0.29812 0.198811 -0.000775951 0.246703 -3.31366 -0.240669 0.0644095 0.340609 
96 1 0.297675 0.249681 0.0489547 0.212748 -3.35693 -0.33473 0.0924053 -0.0797426 
490 1 0.247815 0.248484 0.09983 0.343462 -3.3293 -0.148771 0.542016 -0.0789186 
95 1 0.347201 0.20043 0.0515132 0.463358 -3.33627 0.1299 -0.178195 -0.19304 
497 1 0.399461 0.198315 0.104001 1.38782 -3.3276 -0.104619 0.369973 -0.579618 
100 1 0.398362 0.246004 0.0512079 0.592842 -3.36275 0.0823749 0.571695 0.0819119 
494 1 0.345681 0.25031 0.0976839 0.41522 -3.2999 0.226895 -0.170616 0.144182 
537 1 0.396868 0.298561 0.101181 0.511473 -3.37412 0.665983 0.00213802 -0.316511 
99 1 0.450678 0.20287 0.0521241 0.712271 -3.27955 -0.415105 -0.592206 -0.23598 
103 1 0.55231 0.199649 0.0459193 1.43638 -3.34121 -0.00925783 0.037025 0.405333 
104 1 0.499767 0.247979 0.0541827 0.920992 -3.31413 0.546899 0.579784 -0.62197 
143 1 0.550924 0.299722 0.0505204 0.474014 -3.32158 -0.134475 -0.043169 0.221524 
498 1 0.452789 0.249361 0.102994 0.727486 -3.35142 -0.557768 0.257922 -0.09919 
101 1 0.499774 0.200275 0.000475494 0.462544 -3.3206 0.225834 0.338853 -0.135146 
102 1 0.555532 0.25091 0.000828568 0.643285 -3.33693 -0.578887 -0.05343 -0.145603 
105 1 0.606039 0.203081 0.000947267 1.14313 -3.27808 -0.420523 -0.0652604 -0.411752 
108 1 0.598527 0.252031 0.0522568 0.711345 -3.27522 0.224088 -0.466898 -0.253857 
147 1 0.648374 0.298073 0.0494569 0.781282 -3.31894 0.207822 0.535641 -0.0336886 
145 1 0.601838 0.3025 -9.92832e-05 0.204409 -3.29663 -0.0780125 -0.129266 0.136658 
106 1 0.653965 0.253043 -0.00219384 0.573426 -3.32017 -0.108869 -0.0554607 0.00433497 
509 1 0.700461 0.202973 0.0977249 0.56423 -3.29842 -0.101212 -0.153265 -0.252492 
110 1 0.751116 0.252506 -0.00415779 0.743951 -3.35074 -0.354661 0.106099 0.391878 
112 1 0.698403 0.250532 0.0461439 0.903281 -3.37455 0.56938 -0.0423997 0.388567 
151 1 0.750694 0.301069 0.0517004 0.889177 -3.27746 -0.18561 -0.544796 -0.402397 
116 1 0.80305 0.251168 0.049187 0.285798 -3.34106 -0.302253 0.361681 -0.0128121 
155 1 0.850515 0.303122 0.0481276 0.490488 -3.27807 -0.0325131 -0.36328 0.346536 
114 1 0.854116 0.25263 -0.000181535 0.49978 -3.35108 -0.0114243 0.037743 -0.0472022 
153 1 0.798016 0.30319 -0.000585673 0.747274 -3.33671 0.177818 -0.449364 -0.0696808 
517 1 0.89811 0.200112 0.102904 0.18219 -3.33804 0.132876 -0.075624 -0.111152 
521 1 0.999003 0.300451 0.0990069 0.410714 -3.33616 0.398672 0.108805 0.134394 
120 1 0.899445 0.253427 0.0551157 0.881355 -3.30228 0.335812 0.132987 -0.283545 
518 1 0.950218 0.250525 0.101924 0.244492 -3.31245 -0.277747 0.152932 -0.172461 
557 1 0.89816 0.3036 0.102844 0.714405 -3.33309 0.222964 -0.458159 -0.525828 
118 1 0.945675 0.252817 0.00311329 1.68064 -3.3045 0.71114 0.0106121 -0.147163 
123 1 0.0528682 0.303542 0.0517353 0.815612 -3.25542 -0.524965 -0.212241 0.0452171 
128 1 0.102067 0.35026 0.0534148 0.837628 -3.26621 -0.111373 0.166829 -0.739271 
163 1 0.0484329 0.400309 0.0507788 0.296497 -3.35039 0.455013 -0.0299889 -0.324457 
522 1 0.0527532 0.35117 0.100355 0.477769 -3.30811 -0.50597 -0.0878305 0.105369 
122 1 0.0517096 0.351076 0.00032274 0.294157 -3.2856 -0.0968815 0.118854 0.00157164 
127 1 0.151256 0.299573 0.0459447 1.05472 -3.30876 -0.209927 -0.0555578 0.643238 
529 1 0.200277 0.301737 0.0974894 0.412514 -3.36026 -0.014423 -0.249968 0.0674731 
132 1 0.198099 0.353029 0.0501009 0.788237 -3.39681 0.371367 0.190586 -0.000570906 
167 1 0.145167 0.399236 0.0486711 1.13833 -3.304 0.626232 0.0894173 0.382675 
131 1 0.248867 0.303592 0.0462847 1.12526 -3.32568 0.485418 -0.185674 0.501304 
533 1 0.297611 0.302511 0.0992603 0.525496 -3.33234 -0.402697 -0.343674 -0.0113174 
136 1 0.303421 0.348237 0.0485001 0.719992 -3.33857 -0.51087 0.560761 0.225588 
171 1 0.254179 0.403458 0.0486906 1.20223 -3.34774 -0.609567 -0.863618 0.280299 
530 1 0.249494 0.353511 0.102139 0.734183 -3.33585 -0.115164 -0.158104 -0.680094 
130 1 0.254245 0.34996 -0.00476928 0.885665 -3.31544 -0.243763 -0.325663 0.634577 
135 1 0.348161 0.298717 0.0516281 0.31223 -3.26264 0.443968 -0.0943193 0.139088 
137 1 0.395892 0.29859 0.00297223 1.07937 -3.31934 0.312352 -0.632011 -0.0860687 
140 1 0.400755 0.349659 0.0518579 0.55142 -3.38921 -0.294054 -0.0743091 0.168294 
175 1 0.349365 0.402787 0.0488222 1.14128 -3.28527 0.189367 -0.846723 0.206541 
534 1 0.347951 0.348671 0.103794 0.850829 -3.2808 0.256879 0.221075 -0.640572 
139 1 0.451311 0.297706 0.0514224 0.391062 -3.32786 -0.431647 -0.365954 0.423879 
541 1 0.502243 0.303549 0.104693 1.42524 -3.25117 0.196659 -0.740281 -0.778829 
144 1 0.498987 0.345048 0.0495376 1.04302 -3.26076 0.048307 0.604789 0.45094 
179 1 0.448941 0.399891 0.0532458 0.882705 -3.33723 0.312272 -0.224473 -0.306174 
542 1 0.553591 0.348579 0.103144 0.948916 -3.33155 -0.3201 0.33243 -0.413011 
148 1 0.600631 0.354035 0.0490591 1.25982 -3.3154 0.0366665 -0.724759 0.234444 
546 1 0.650651 0.351151 0.10008 0.195536 -3.31602 -0.215304 -0.18594 -0.21907 
149 1 0.705768 0.306258 0.000482812 2.06771 -3.30978 -0.443018 -0.744005 -0.175145 
152 1 0.699895 0.349661 0.0509484 0.723629 -3.31691 -0.325752 0.124698 -0.305142 
191 1 0.748086 0.398811 0.0521508 1.18604 -3.25562 0.296991 0.536259 -0.594326 
150 1 0.752525 0.352605 -0.0030823 0.893069 -3.23562 -0.23975 0.135411 0.250014 
156 1 0.797115 0.34832 0.0477321 0.786423 -3.23205 0.300945 0.513321 0.174177 
195 1 0.846056 0.39868 0.0522444 1.12477 -3.30154 0.542829 0.198458 -0.153758 
154 1 0.851121 0.351413 0.00443388 1.07948 -3.27618 -0.374151 0.313903 -0.873682 
121 1 1.00587 0.303549 0.000171452 1.52982 -3.29426 -0.425771 -0.618918 -0.10386 
159 1 0.950861 0.304926 0.0479798 0.953534 -3.27196 -0.23462 -0.564755 0.509113 
124 1 1.00041 0.348577 0.0501264 0.623256 -3.2805 0.264831 0.539454 0.0557313 
160 1 0.900184 0.352064 0.0501633 0.260613 -3.31913 0.398071 0.275909 0.33047 
558 1 0.953103 0.350483 0.10122 0.541304 -3.30086 -0.384454 0.277717 -0.378141 
161 1 0.999061 0.397544 -0.00224166 0.77447 -3.31671 0.318208 0.339602 0.0406842 
158 1 0.953393 0.348759 -0.00263082 0.604592 -3.29386 -0.175698 0.215144 -0.100955 
165 1 0.0987647 0.398034 -0.000614318 0.52985 -3.28675 0.396889 0.121738 0.256469 
168 1 0.0982952 0.452608 0.0505236 0.685113 -3.32096 -0.0566491 -0.283102 -0.259075 
203 1 0.045202 0.499381 0.0448779 2.01428 -3.28545 0.756938 0.416843 0.415634 
162 1 0.0516932 0.447446 -0.000276377 0.555735 -3.31279 -0.00966446 0.255845 -0.0663189 
172 1 0.196183 0.45086 0.0514398 0.828762 -3.28937 0.396057 -0.453207 -0.229537 
207 1 0.14761 0.501146 0.0497863 0.561602 -3.28731 0.206925 -0.042261 0.433339 
566 1 0.147134 0.45132 0.0970215 0.824864 -3.27251 -0.0983525 -0.0794332 0.388449 
609 1 0.200354 0.498432 0.100448 0.522207 -3.25511 -0.49514 0.135516 -0.0700692 
209 1 0.1969 0.498875 0.00316526 0.86251 -3.36806 0.467675 -0.097935 -0.420203 
573 1 0.302996 0.398364 0.100255 0.730726 -3.30971 -0.436326 0.215379 0.000111435 
176 1 0.302499 0.448541 0.0516406 0.57185 -3.249 -0.211873 0.511466 -0.0658147 
570 1 0.246693 0.449181 0.0990568 0.719008 -3.31535 0.674483 -0.146872 0.382798 
613 1 0.30251 0.500186 0.0971914 0.997291 -3.31275 -0.314615 -0.347811 0.284432 
213 1 0.301255 0.501514 0.00822296 1.72759 -3.28448 0.0301511 -0.519719 -0.908026 
180 1 0.401318 0.446798 0.0468077 1.20065 -3.30468 0.0423444 0.305291 0.573571 
574 1 0.348462 0.449168 0.101447 0.327975 -3.33274 0.211846 -0.339159 0.0592065 
174 1 0.349767 0.450803 0.000301959 0.512182 -3.36037 0.0276189 -0.0223988 -0.230529 
177 1 0.396287 0.397945 -0.000580891 1.05574 -3.31765 0.538135 -0.0512816 0.214479 
217 1 0.403315 0.499601 0.00165118 0.541394 -3.31092 -0.430491 -0.257573 -0.55557 
183 1 0.54969 0.398237 0.0510733 0.518589 -3.37064 -0.0875686 0.24548 0.231603 
184 1 0.50096 0.44918 0.0484455 0.612693 -3.36877 0.0905112 -0.0788735 0.326596 
219 1 0.449961 0.499417 0.0487083 0.342989 -3.29656 0.431467 -0.403441 0.396236 
578 1 0.449807 0.448947 0.102605 0.425796 -3.30117 -0.347363 -0.409678 -0.633113 
582 1 0.551875 0.449547 0.101438 0.274278 -3.358 -0.0506438 -0.0860713 -0.282417 
187 1 0.649646 0.399043 0.0522977 0.995399 -3.28686 0.60711 0.16189 -0.157821 
185 1 0.60634 0.401494 -0.000287358 1.49635 -3.31403 -0.525836 -0.368474 0.224879 
188 1 0.602874 0.447204 0.0510124 0.811104 -3.30912 -0.528266 0.340713 0.116603 
227 1 0.647693 0.501177 0.0513639 0.95277 -3.27458 0.689465 -0.411217 0.0501368 
192 1 0.701759 0.451194 0.0468133 1.12057 -3.34391 -0.155477 0.108369 0.351037 
590 1 0.748851 0.454569 0.103391 0.844284 -3.33235 0.311519 0.241251 -0.376227 
229 1 0.702812 0.499891 0.000725962 0.279604 -3.25899 -0.227666 0.167348 0.184626 
193 1 0.794717 0.403069 0.00378541 2.07631 -3.29799 0.544258 7.9891e-05 -0.186349 
196 1 0.806525 0.453332 0.0537763 1.75618 -3.32783 -0.858863 -0.0691815 -0.23414 
194 1 0.850994 0.445848 0.0021929 2.00838 -3.28802 -0.235129 0.573569 -0.447655 
199 1 0.953063 0.400807 0.0470646 0.345007 -3.37458 -0.403281 0.0982314 0.318553 
164 1 0.998887 0.451976 0.0442117 1.03452 -3.31903 -0.204601 -0.347349 0.415015 
200 1 0.897012 0.453135 0.0484985 1.10935 -3.30821 0.608975 -0.656241 0.0969215 
598 1 0.950889 0.451504 0.0983894 0.260452 -3.31616 0.0407256 -0.429817 -0.174631 
198 1 0.950025 0.45234 -0.00463489 0.510066 -3.2898 0.0570174 -0.185489 0.676292 
208 1 0.101955 0.551347 0.0516 0.352676 -3.33674 -0.122803 -0.0924755 -0.0483761 
202 1 0.0558947 0.552695 0.000560698 1.30705 -3.29492 -0.407 -0.821072 -0.129061 
245 1 0.102891 0.600085 0.0019855 0.217012 -3.28818 0.261379 0.266315 0.144362 
205 1 0.104117 0.500418 -0.000266844 0.692752 -3.37826 -0.351696 -0.0389532 -0.103409 
201 1 5.48806e-05 0.500731 -0.00313794 0.304043 -3.29471 -0.135704 0.230203 0.0851062 
212 1 0.199729 0.54944 0.0534292 0.559218 -3.30274 0.0550106 -0.0728495 -0.393626 
206 1 0.154474 0.551254 0.00205149 0.71141 -3.33276 -0.320106 -0.0702636 -0.354547 
211 1 0.248846 0.496552 0.053765 0.616376 -3.28776 0.0760863 0.26432 -0.473923 
216 1 0.301155 0.54729 0.049747 0.454642 -3.24865 -0.250324 0.584556 0.640514 
610 1 0.247477 0.546832 0.0993017 0.749128 -3.27646 0.494613 0.399393 -0.082283 
210 1 0.249322 0.549118 0.00485587 0.932009 -3.32043 -0.106559 -0.32639 -0.439615 
251 1 0.250708 0.60135 0.0452561 1.39827 -3.3192 0.031374 -0.316868 0.648724 
215 1 0.355935 0.498507 0.0515791 1.09416 -3.29812 -0.218686 0.0207624 -0.216721 
220 1 0.406398 0.54792 0.0512918 1.17028 -3.27769 -0.572361 0.217122 0.0880349 
617 1 0.398542 0.494263 0.102282 1.37094 -3.29166 0.170571 0.396392 -0.301255 
214 1 0.351245 0.551572 0.00502646 1.3871 -3.25522 0.212898 -0.74121 -0.524843 
255 1 0.352581 0.596614 0.0517531 0.587014 -3.32477 0.0982722 0.190757 -0.0403865 
223 1 0.548759 0.501646 0.0536579 0.81489 -3.36979 0.360574 -0.167046 -0.328243 
224 1 0.498865 0.550744 0.0480663 0.696704 -3.33826 0.0809189 -0.260915 0.232935 
622 1 0.547945 0.54857 0.103639 0.821698 -3.26748 0.301448 0.0633843 -0.587653 
218 1 0.450057 0.54802 -0.002348 0.429863 -3.27651 0.213563 0.105433 -0.0443935 
263 1 0.549786 0.598158 0.055106 1.39557 -3.30677 0.342464 -0.108591 -0.794056 
228 1 0.605473 0.549448 0.0552352 1.65031 -3.26088 -1.18486 0.241447 -0.367266 
626 1 0.653757 0.556203 0.101004 1.78316 -3.24875 -0.519756 -0.366779 0.42025 
225 1 0.601388 0.50046 0.00385097 0.462674 -3.30187 -0.318568 0.233665 -0.0474824 
267 1 0.649126 0.599278 0.0460479 1.78679 -3.23407 0.764759 0.282134 0.872756 
230 1 0.750618 0.548246 0.00316227 0.710994 -3.30469 0.229518 0.37108 -0.333641 
231 1 0.753474 0.501434 0.051382 0.377078 -3.34056 -0.133638 -0.151811 0.372172 
232 1 0.703727 0.549766 0.0510915 0.627082 -3.33995 -0.366729 0.247989 0.125064 
630 1 0.750619 0.551048 0.102536 0.489637 -3.28416 -0.0268069 0.0655144 -0.370976 
271 1 0.750245 0.601813 0.053531 0.528048 -3.35657 0.112765 -0.00547942 -0.296221 
269 1 0.701706 0.601563 0.00266057 0.347382 -3.33413 0.115511 -0.128137 -0.114883 
235 1 0.853479 0.50393 0.0518263 0.627423 -3.23123 -0.187388 -0.10462 -0.0764638 
236 1 0.804299 0.551354 0.0518734 0.380904 -3.31686 -0.463822 0.142899 0.154354 
633 1 0.800259 0.50425 0.103614 0.8272 -3.29872 0.37951 -0.499093 -0.511748 
634 1 0.856369 0.551156 0.0992636 1.16913 -3.33152 -0.242561 -0.116528 -0.215565 
204 1 1.00098 0.55167 0.0462345 0.440086 -3.33267 -0.0737961 -0.097887 0.088636 
239 1 0.951187 0.504169 0.0490333 1.02381 -3.32366 0.124186 -0.428849 -0.298793 
240 1 0.899978 0.554361 0.0426556 1.60769 -3.22727 0.352609 -0.191565 0.891467 
637 1 0.902298 0.497421 0.095754 1.59012 -3.25446 -0.0454161 0.495161 0.814017 
638 1 0.948687 0.550625 0.0953113 0.532034 -3.39052 0.184635 0.144186 0.183941 
279 1 0.95017 0.60103 0.0464432 0.11922 -3.32917 0.277211 0.0412899 0.13976 
243 1 0.0504289 0.600274 0.0493096 0.299843 -3.26834 0.27624 0.109313 -0.110639 
248 1 0.100451 0.652588 0.0498008 0.201652 -3.32313 0.0548925 -0.585291 -0.00242881 
642 1 0.0482081 0.656871 0.0986837 1.84962 -3.21559 -0.101014 -0.930984 0.106544 
242 1 0.0502926 0.650645 0.000140257 0.273388 -3.37945 0.0961665 0.0893403 -0.227286 
283 1 0.0512998 0.700385 0.0494625 0.274184 -3.25102 -0.505344 0.372855 -0.42824 
285 1 0.101872 0.699862 0.00408128 0.745279 -3.323 0.186759 0.187356 -0.821495 
247 1 0.153594 0.599232 0.0524686 0.54638 -3.31582 -0.438363 0.180165 -0.333142 
252 1 0.200756 0.648114 0.0491212 0.309063 -3.29754 0.10381 0.228898 -0.22267 
649 1 0.201376 0.599593 0.0999958 0.376072 -3.28571 0.261401 0.157531 -0.210304 
289 1 0.19873 0.699457 0.00121083 0.501534 -3.35598 0.103705 0.218952 -0.198402 
250 1 0.25073 0.651114 -0.00123457 0.456457 -3.3204 -0.0199309 -0.00520057 0.372932 
256 1 0.302463 0.645388 0.0513564 0.979728 -3.34758 0.0452659 0.671879 -0.0972369 
650 1 0.246754 0.65055 0.0985143 0.817259 -3.28048 0.849251 -0.441863 0.0200781 
260 1 0.397291 0.647472 0.0496774 0.760151 -3.30002 0.258846 0.0853711 0.153296 
697 1 0.401436 0.697548 0.0997654 0.28082 -3.3534 -0.219653 0.2035 0.120523 
259 1 0.44904 0.598801 0.0478179 0.543622 -3.29745 -0.195527 -0.11798 0.329928 
264 1 0.498332 0.645179 0.0508509 1.07404 -3.20701 0.315805 0.392218 -0.216233 
658 1 0.449859 0.648248 0.0956093 1.59401 -3.28851 0.0281388 -0.117831 0.943456 
661 1 0.501422 0.596441 0.101084 0.753881 -3.31985 -0.273199 0.647519 0.327184 
662 1 0.549363 0.652903 0.0941042 2.71561 -3.31243 0.0635751 -0.146345 0.749792 
299 1 0.452218 0.696197 0.0525535 0.892414 -3.32513 -0.0805589 0.396667 -0.329252 
701 1 0.501986 0.704415 0.105614 3.03358 -3.29492 -0.178982 -0.532988 -0.695834 
258 1 0.449129 0.646769 0.00066521 0.260616 -3.29317 -0.223214 0.183294 -0.019441 
301 1 0.496577 0.695404 0.000103686 1.26412 -3.33184 0.279155 0.556594 0.226168 
268 1 0.604164 0.650793 0.0492915 0.87162 -3.32261 -0.480579 0.159761 -0.0896715 
666 1 0.652911 0.651233 0.100044 0.644983 -3.33224 -0.34685 -0.14837 0.238504 
266 1 0.651148 0.64895 -0.0010986 0.483312 -3.31277 0.272712 0.260709 0.152063 
265 1 0.602191 0.59907 0.000914987 0.381997 -3.2892 -0.397472 -0.0548514 0.0448679 
272 1 0.697931 0.653785 0.0505674 0.988669 -3.31981 0.424302 -0.657149 -0.406847 
270 1 0.752302 0.650091 -0.000778964 0.189139 -3.35881 -0.0117429 0.0718504 0.215038 
709 1 0.701073 0.702259 0.0951867 0.808184 -3.29593 -0.0646833 0.0441948 0.353457 
275 1 0.849479 0.602221 0.0461909 0.661296 -3.27217 0.221713 0.0875673 0.128517 
276 1 0.802977 0.651056 0.0494495 0.546125 -3.31981 -0.386978 -0.164355 -0.180096 
674 1 0.850276 0.652458 0.100756 0.589509 -3.28284 -0.256832 0.110877 -0.279825 
274 1 0.85114 0.655465 -0.00353371 1.16849 -3.33992 0.0774451 -0.725093 0.27013 
315 1 0.848618 0.698813 0.0462184 0.567051 -3.31892 0.518351 0.559606 0.361883 
244 1 1.00284 0.648752 0.0490365 0.517898 -3.31342 -0.357214 0.225909 -0.23223 
280 1 0.899152 0.649227 0.0476732 0.434707 -3.33399 0.204349 0.384584 -0.209839 
678 1 0.949871 0.649565 0.0959774 0.479006 -3.36752 0.105737 0.0884834 0.405732 
277 1 0.903615 0.602222 -0.00276332 0.333222 -3.31307 -0.406963 0.108265 -0.0781982 
319 1 0.953999 0.700459 0.0495078 0.846911 -3.31247 -0.552841 -0.190665 -0.445393 
241 1 1.00489 0.597109 -0.0045952 1.22735 -3.28731 -0.606244 0.237469 0.547745 
288 1 0.101251 0.752368 0.048409 0.546996 -3.34647 -0.119717 0.125511 0.417355 
284 1 0.00167369 0.751722 0.0478069 0.273802 -3.34118 -0.275699 -0.00937958 0.028311 
325 1 0.100413 0.801416 -0.000323144 0.155796 -3.34848 -0.0747604 -0.0804553 0.0250028 
287 1 0.151548 0.700249 0.0497007 0.396187 -3.31244 0.0247125 0.226107 0.30406 
292 1 0.201328 0.749807 0.0536755 0.631717 -3.3667 0.101432 0.21697 -0.189264 
286 1 0.152638 0.756002 0.00528597 2.09317 -3.3132 0.0181074 -0.561963 -0.580519 
291 1 0.250614 0.699197 0.0497303 0.164438 -3.36098 0.057678 0.0116549 -0.0854268 
296 1 0.302289 0.749455 0.050229 0.316965 -3.2754 -0.767294 -0.141855 0.149067 
693 1 0.298721 0.697849 0.0993044 0.423585 -3.3667 0.375395 -0.155802 0.0814572 
333 1 0.299434 0.800437 0.00270131 0.474786 -3.32865 -0.026743 -0.154845 -0.460167 
293 1 0.300486 0.699751 0.000168254 0.188594 -3.33606 0.0429171 -0.165211 0.0663578 
295 1 0.350457 0.699725 0.0494767 0.441661 -3.31932 -0.170197 -0.449499 0.418608 
300 1 0.40094 0.747263 0.051719 0.201652 -3.31693 0.0446844 0.179289 -0.116391 
694 1 0.349525 0.747755 0.101129 0.129583 -3.35551 -0.0260399 -0.129777 0.121465 
294 1 0.35133 0.748186 0.00452515 0.638891 -3.25965 -0.0636421 0.268687 -0.523073 
335 1 0.347621 0.797188 0.0503025 0.640427 -3.28674 0.42249 0.244676 0.189186 
303 1 0.547667 0.701972 0.0479782 1.33102 -3.34137 0.153974 -0.609659 0.201893 
304 1 0.499218 0.748146 0.0510113 0.505023 -3.30093 0.195173 0.301562 -0.135506 
702 1 0.552641 0.750893 0.100947 0.966409 -3.28945 -0.439144 0.182577 -0.231458 
298 1 0.450787 0.749811 0.000678405 0.413669 -3.31802 0.0993145 -0.424505 -0.00212016 
339 1 0.451641 0.797562 0.0513805 0.39612 -3.31021 0.0996073 0.194456 -0.233536 
343 1 0.549215 0.8011 0.0552804 1.09895 -3.3511 -0.173146 -0.108919 -0.392469 
341 1 0.499923 0.799993 -0.00550428 2.22291 -3.29829 -0.109906 0.0809258 0.782034 
307 1 0.650255 0.700214 0.0484514 0.237418 -3.2919 -0.0735801 0.250396 0.170321 
308 1 0.600671 0.746894 0.0507904 1.38068 -3.26077 0.339445 0.550923 0.264748 
705 1 0.599042 0.700437 0.10221 0.49046 -3.35915 0.130816 -0.1731 -0.252487 
347 1 0.654603 0.800904 0.0467409 1.56919 -3.23144 -0.477843 0.192652 0.594185 
745 1 0.604291 0.802717 0.0969006 1.94399 -3.276 -0.514264 -0.152302 0.0365365 
311 1 0.751299 0.700986 0.0441985 0.61426 -3.33009 -0.0792429 0.167984 0.205858 
312 1 0.696569 0.751572 0.0476341 0.72115 -3.30883 0.713773 -0.47833 0.38346 
309 1 0.699421 0.701909 -0.00295074 0.388269 -3.33359 0.443978 -0.025562 0.348215 
316 1 0.803392 0.75235 0.0453913 1.03981 -3.30673 -0.686537 -0.566387 -0.00649155 
314 1 0.853466 0.749518 -0.00638646 1.11254 -3.27816 -0.165238 0.244439 0.671039 
320 1 0.901397 0.747696 0.0429788 1.59433 -3.29722 -0.476048 0.170283 0.889265 
718 1 0.948842 0.750335 0.0962931 0.318354 -3.31147 -0.0782339 0.130715 0.0702264 
281 1 0.998946 0.70223 -0.00162503 0.56545 -3.3507 -0.00461549 -0.10416 0.168466 
323 1 0.047884 0.800052 0.0487679 0.346656 -3.309 0.491693 -0.0572806 -0.0336112 
328 1 0.09864 0.850946 0.0486104 0.169049 -3.32654 0.219436 -0.346268 -0.168282 
725 1 0.0955768 0.804242 0.0995714 1.24375 -3.26823 0.889069 -0.960632 -0.211048 
322 1 0.0505199 0.849529 -0.00566824 0.824068 -3.31866 -0.169979 0.107686 0.345002 
363 1 0.0506425 0.896972 0.0475904 0.465661 -3.28978 -0.219923 0.303292 0.148728 
327 1 0.1528 0.805353 0.05235 1.10042 -3.29459 -0.598418 -0.678161 -0.215414 
332 1 0.198644 0.852335 0.0492355 0.373589 -3.2817 0.514853 0.0621887 0.376451 
726 1 0.149356 0.852226 0.100896 0.279329 -3.31451 0.0962077 -0.0879049 -0.0669244 
367 1 0.148214 0.900958 0.0486097 0.35655 -3.29985 0.197294 -0.183032 0.285899 
769 1 0.197643 0.900303 0.10164 0.310975 -3.34812 0.0226959 -0.067818 -0.153481 
331 1 0.251569 0.803619 0.0494271 0.862983 -3.32875 -0.302748 -0.572597 0.439443 
336 1 0.300004 0.850613 0.0493755 0.36316 -3.34136 0.22974 0.0903685 0.178332 
730 1 0.245361 0.848406 0.10164 0.855732 -3.33814 0.606236 0.21819 -0.311687 
733 1 0.301614 0.798855 0.102752 0.5363 -3.35877 -0.444046 -0.0836 -0.225841 
330 1 0.249752 0.852446 -0.00101982 0.545276 -3.29326 0.082168 -0.35879 0.212511 
340 1 0.398082 0.843738 0.0513246 1.15752 -3.31783 0.318141 0.560497 0.119007 
737 1 0.398906 0.797631 0.100357 0.135555 -3.33717 -0.00572972 0.0394051 -0.0502254 
337 1 0.406437 0.799242 -2.11445e-05 2.03559 -3.27271 -0.61676 -0.234304 0.0137884 
344 1 0.499384 0.848588 0.0533097 0.752999 -3.30559 -0.136612 0.0771384 -0.537831 
738 1 0.449505 0.848109 0.0997487 0.321171 -3.30191 -0.513573 0.175754 0.312455 
741 1 0.496048 0.799554 0.104088 1.07099 -3.30276 0.402782 -0.235844 -0.15858 
342 1 0.54655 0.850932 0.00234049 1.01294 -3.34117 0.305123 -0.269469 -0.366378 
348 1 0.600848 0.852127 0.0528002 0.82104 -3.33183 -0.307999 -0.156613 -0.166953 
346 1 0.646869 0.849995 -0.000910735 0.487953 -3.34576 0.170495 0.0585611 -0.370584 
385 1 0.594762 0.900746 9.21342e-05 1.18611 -3.28745 0.624155 -0.351729 -0.498801 
351 1 0.748639 0.800665 0.0471198 0.275898 -3.33938 0.123729 -0.219517 0.211559 
352 1 0.698952 0.851296 0.0489982 0.34869 -3.29886 0.302898 -0.229615 -0.162823 
749 1 0.70054 0.800833 0.0976615 0.262117 -3.34863 -0.0118894 -0.29183 0.224111 
789 1 0.698813 0.899349 0.0970366 0.446956 -3.30689 0.225012 0.0717321 0.28979 
355 1 0.848083 0.796924 0.0495175 1.23132 -3.30188 0.664996 0.823483 -0.301254 
356 1 0.7952 0.852688 0.0452099 0.945903 -3.32226 0.571727 -0.108197 0.235537 
754 1 0.847213 0.849913 0.0975717 0.254536 -3.35565 0.340881 0.0354235 -0.336254 
395 1 0.848402 0.899492 0.0457151 0.298473 -3.32096 0.305095 -0.202343 0.0382081 
353 1 0.798455 0.804674 -0.00161649 0.947356 -3.30638 0.318219 -0.646437 -0.116373 
324 1 1.00111 0.846822 0.0467311 0.823207 -3.33014 -0.283219 0.331366 0.514496 
359 1 0.947568 0.799726 0.0483942 0.704264 -3.31796 0.553298 0.132574 0.213695 