ITEM: TIMESTEP
1000
ITEM: NUMBER OF ATOMS
4000
ITEM: BOX BOUNDS pp pp pp
1.2817585329044481e-01 4.0371824146708981e+01
-1.4976872902764771e-01 4.0649768729026981e+01
-1.4881822114878512e-01 4.0648818221148282e+01
ITEM: ATOMS id type xs ys zs c_csym c_peratom fx fy fz 
2 1 0.0494276 0.0462808 -0.000996893 1.34897 -3.33848 0.261129 0.728282 0.357974 
4 1 0.00267263 0.0527278 0.0520226 0.886733 -3.32571 -0.191299 -0.414085 -0.445309 
8 1 0.100429 0.0489919 0.0545471 0.967456 -3.28459 0.272134 0.765714 -0.61718 
43 1 0.0540665 0.0998974 0.0521793 0.783305 -3.36856 -0.248967 0.192935 -0.298932 
45 1 0.0996859 0.101373 -0.00102668 0.656971 -3.3102 -0.174025 -0.274314 0.57403 
402 1 0.0482923 0.0520119 0.100914 0.579525 -3.28349 0.435606 -0.144705 0.173173 
405 1 0.10516 0.00466985 0.0994147 2.02975 -3.24877 -0.644978 -0.960579 0.741045 
445 1 0.101483 0.0987652 0.10482 0.730569 -3.33 0.214701 0.118848 -0.47367 
7 1 0.150834 0.000389593 0.0540207 0.735011 -3.27962 0.4913 -0.283162 -0.749485 
9 1 0.201686 -0.00124037 -0.00138361 0.664693 -3.36773 -0.0735217 0.216556 0.491359 
12 1 0.20065 0.0477683 0.0506581 0.451049 -3.32372 0.510071 0.0160782 -0.25577 
47 1 0.151112 0.0979764 0.0488785 0.649228 -3.29718 -0.494232 0.171485 0.654745 
49 1 0.200275 0.0999678 0.00568696 1.16631 -3.28286 0.283228 -0.389986 -1.068 
406 1 0.160613 0.0472345 0.10144 3.42821 -3.26236 -0.941088 0.345872 0.384039 
409 1 0.203611 -0.00376646 0.101295 0.664506 -3.30591 0.0547542 0.161618 -0.230633 
449 1 0.201527 0.0999189 0.0994456 0.384583 -3.3271 0.0985921 -0.218705 0.325519 
16 1 0.301067 0.0487465 0.0489349 0.650972 -3.30695 0.298365 0.385513 0.456236 
51 1 0.251127 0.100311 0.0506842 0.276895 -3.31615 0.0688897 -0.2063 0.210673 
410 1 0.252337 0.0488775 0.0999071 0.348358 -3.37263 -0.309549 0.250582 0.444108 
453 1 0.300737 0.0988138 0.102238 0.480395 -3.3675 -0.160901 0.25436 -0.0737624 
14 1 0.352819 0.048662 -0.00291826 1.76817 -3.32112 -0.513602 0.361846 0.621635 
15 1 0.349789 -0.00107236 0.0518138 0.228793 -3.36331 0.325929 -0.101212 0.0437105 
20 1 0.398984 0.0500803 0.0514953 0.40683 -3.29114 0.0763182 -0.283265 -0.425518 
55 1 0.347149 0.101869 0.0524601 0.892545 -3.29595 0.0870449 -0.414887 -0.398855 
57 1 0.400254 0.10312 0.00149609 0.311144 -3.31899 -0.112302 0.125433 0.148478 
414 1 0.351958 0.0468789 0.100357 0.493734 -3.33433 -0.50646 0.00077804 0.145334 
457 1 0.398015 0.0958279 0.0955048 2.10879 -3.25639 0.436041 0.707035 0.857094 
22 1 0.546781 0.0507894 0.0020033 0.69411 -3.31737 0.3263 -0.611339 0.294786 
23 1 0.552177 0.000391879 0.0540809 0.872813 -3.34947 -0.253858 0.0315841 -0.670317 
24 1 0.499731 0.048954 0.0519916 0.455387 -3.34186 0.209841 0.334484 -0.140965 
59 1 0.448142 0.105956 0.0508139 1.49527 -3.34646 0.16654 -0.658148 0.0592078 
61 1 0.502391 0.100307 0.00364595 0.788096 -3.26722 -0.728951 -0.0286484 0.17865 
63 1 0.55372 0.100857 0.0512154 0.807156 -3.32895 -0.552471 -0.413506 0.280285 
418 1 0.452792 0.0505103 0.0995565 0.594096 -3.30055 -0.48876 0.000515106 -0.0203574 
421 1 0.501684 -0.000123419 0.100167 0.278003 -3.32182 -0.06027 -0.13983 0.298186 
422 1 0.548957 0.0520788 0.102477 0.782677 -3.30567 0.588771 -0.235733 -0.609589 
461 1 0.498928 0.102319 0.101227 0.374731 -3.33141 0.196544 0.266461 -0.233067 
28 1 0.603164 0.0459712 0.0496065 0.952149 -3.32206 -0.374127 0.593887 0.540691 
65 1 0.598173 0.0977501 0.00232194 0.388372 -3.31659 0.208036 0.0987266 -0.249705 
67 1 0.652534 0.10013 0.0461716 1.14087 -3.3648 -0.06203 -0.0802436 0.533996 
425 1 0.599613 -0.00364351 0.101078 0.716873 -3.30747 0.240916 0.582697 0.0399876 
426 1 0.652475 0.0492846 0.10169 0.313737 -3.36709 -0.184878 -0.00793936 -0.0307068 
465 1 0.604216 0.0972146 0.100079 0.854084 -3.36211 0.06125 0.154266 -0.137979 
30 1 0.74944 0.0464833 -2.68423e-05 0.740927 -3.312 -0.341392 0.419641 -0.0998 
32 1 0.699991 0.0478691 0.0523899 0.56469 -3.33521 0.0628222 0.139364 -0.127616 
69 1 0.700292 0.103452 -0.0037883 1.59537 -3.28861 -0.252013 -0.707998 0.485022 
71 1 0.746947 0.0963831 0.0500342 0.916906 -3.33835 0.298722 0.453096 -0.0616013 
430 1 0.754058 0.0482046 0.100004 0.559986 -3.27707 -0.507182 0.16912 0.30425 
469 1 0.702031 0.0979453 0.104567 1.04724 -3.31692 -0.356112 0.11009 -0.700816 
33 1 0.801069 0.00143996 0.00158548 0.486237 -3.34319 0.298722 -0.0596259 -0.32457 
35 1 0.855455 -0.00390238 0.0492117 1.34889 -3.32772 -0.54572 0.726084 0.0319644 
36 1 0.795389 0.0507858 0.0493108 1.86121 -3.23822 1.19751 0.139709 0.0356208 
75 1 0.84799 0.099052 0.0533495 0.631496 -3.32601 0.062781 0.120153 -0.526209 
434 1 0.852387 0.0521291 0.0989339 0.743748 -3.34931 -0.0380663 -0.724534 0.0519563 
473 1 0.802039 0.0996644 0.101823 0.454565 -3.31658 -0.424794 -0.0255467 -0.142068 
401 1 1.00269 2.56921e-06 0.099155 0.357433 -3.34687 -0.177134 0.0627027 0.0541582 
441 1 1.00004 0.0998565 0.101098 0.258556 -3.31234 -0.234734 0.112543 -0.143756 
38 1 0.949745 0.0499586 0.00401491 0.668845 -3.35498 0.322235 -0.322032 -0.431856 
39 1 0.950199 -0.00293297 0.0502067 0.604277 -3.33097 0.336602 0.383204 -0.417861 
40 1 0.901299 0.050393 0.0506795 0.303239 -3.32855 -0.268387 -0.383025 0.127261 
79 1 0.951628 0.0999974 0.0496217 0.299897 -3.30619 -0.0682743 0.0637046 0.389648 
438 1 0.950724 0.0463349 0.0974587 0.973808 -3.32985 0.160855 0.451933 0.117853 
477 1 0.903578 0.101178 0.0997229 0.616715 -3.35987 -0.126162 0.199216 -0.113952 
48 1 0.102592 0.148819 0.0518252 0.342649 -3.37772 -0.189027 0.126694 0.354722 
83 1 0.0493477 0.202303 0.049461 0.820793 -3.31783 0.353419 -0.68664 0.173917 
85 1 0.102099 0.196577 0.00410993 1.021 -3.31235 -0.16359 0.709907 0.0866446 
442 1 0.0470386 0.151152 0.100989 0.678901 -3.36234 0.615385 0.20107 -0.436602 
481 1 -0.0023316 0.204113 0.0980612 1.05643 -3.19602 -0.125033 -0.822416 0.135446 
485 1 0.101759 0.198723 0.104983 0.803322 -3.34255 -0.269056 -0.214943 -0.702899 
46 1 0.150001 0.148918 -0.000753547 0.475063 -3.28805 0.25776 0.133089 0.347961 
52 1 0.200439 0.147258 0.0478351 0.668647 -3.26058 -0.166947 0.647869 0.452867 
87 1 0.153868 0.198786 0.0523132 0.479576 -3.36256 -0.451562 -0.0316156 -0.161087 
89 1 0.200781 0.198217 -0.00304572 0.961614 -3.37629 -0.221855 0.383803 0.278052 
446 1 0.153141 0.146584 0.102018 0.3249 -3.36471 -0.210203 0.0821532 0.114604 
489 1 0.200198 0.196869 0.101529 0.386794 -3.30798 -0.27413 0.519603 0.404314 
56 1 0.296786 0.154434 0.0518408 0.976255 -3.33985 0.209844 -0.316547 0.0854335 
91 1 0.247361 0.201158 0.0522244 0.40501 -3.30004 0.213242 -0.187684 -0.0503639 
93 1 0.297334 0.201849 -0.000345234 0.541567 -3.33154 0.256757 -0.336867 0.49354 
450 1 0.246283 0.150802 0.0983641 1.26806 -3.28693 0.747287 -0.241202 0.487305 
493 1 0.303029 0.201049 0.10222 0.702299 -3.37565 -0.489577 0.0317447 0.0958977 
54 1 0.347793 0.15089 0.00425675 0.502454 -3.35892 -0.0536186 0.275838 -0.40624 
60 1 0.397745 0.152534 0.0501525 0.471591 -3.30668 0.640376 0.0306627 -0.0977642 
95 1 0.348414 0.20156 0.0525031 0.384709 -3.31372 0.00806796 0.192393 -0.363438 
454 1 0.353609 0.150335 0.0974181 1.41586 -3.29229 -0.777626 0.0589633 0.774619 
497 1 0.398013 0.203499 0.100596 0.551251 -3.28519 0.510039 -0.653234 -0.122666 
58 1 0.452995 0.151856 0.000509245 0.675708 -3.28976 -0.726664 -0.253691 0.00619074 
62 1 0.547187 0.152655 0.00261054 1.07684 -3.29699 0.512169 -0.255328 -0.134938 
64 1 0.499786 0.148385 0.0510648 0.629934 -3.31452 0.15785 0.397563 0.338988 
99 1 0.448014 0.204567 0.050477 0.852505 -3.30421 -0.0923535 -0.796804 0.0386327 
101 1 0.498565 0.196233 2.8112e-05 1.32632 -3.27976 0.276944 1.04409 0.0786634 
103 1 0.551386 0.203001 0.0511495 1.00697 -3.31115 -0.104787 -0.777944 -0.149653 
458 1 0.448299 0.150679 0.102705 0.757418 -3.35513 -0.0969491 0.0260735 -0.426835 
462 1 0.553487 0.148658 0.100705 0.646453 -3.34244 -0.334709 0.396622 -0.134273 
501 1 0.498907 0.198952 0.0969688 0.813013 -3.34226 0.140192 -0.0606969 0.518869 
66 1 0.644655 0.14773 -0.00334518 1.02265 -3.27961 0.548653 -0.0638676 0.363437 
68 1 0.599345 0.148713 0.0500784 0.449532 -3.33097 0.210834 0.338125 -0.0381702 
105 1 0.59986 0.197075 -0.00250983 0.958909 -3.32985 -0.202812 0.543002 0.514425 
107 1 0.651535 0.196866 0.0464954 0.758718 -3.32674 -0.10878 0.165701 0.0577592 
466 1 0.648949 0.153025 0.0976586 1.19255 -3.35 0.437922 -0.658309 0.322089 
505 1 0.604696 0.202709 0.0983159 1.45717 -3.28271 -0.72246 -0.399951 0.522572 
70 1 0.749984 0.150603 -0.00172083 0.687998 -3.33601 0.542409 -0.366782 0.117274 
72 1 0.702902 0.146668 0.0472683 1.02863 -3.31702 -0.393837 0.18704 0.419716 
109 1 0.698668 0.19432 -0.00280606 1.09967 -3.2869 -0.469574 0.465241 0.429695 
111 1 0.748869 0.19957 0.0493564 0.363255 -3.28038 0.11994 -0.0594912 -0.575308 
470 1 0.748724 0.148926 0.101241 0.539835 -3.2885 0.0525502 -0.378768 -0.239917 
509 1 0.701923 0.198591 0.0954753 0.741506 -3.30728 -0.659332 0.0930752 0.391866 
74 1 0.848378 0.14677 0.00277467 0.44933 -3.34113 -0.0606348 0.0956007 -0.0141335 
76 1 0.796698 0.15112 0.0528061 0.9742 -3.3567 0.197545 -0.553678 -0.614213 
113 1 0.800373 0.198975 -0.00429171 1.24857 -3.35112 -0.148662 0.0624781 0.689903 
115 1 0.848729 0.19868 0.050354 0.210555 -3.37565 -0.164728 0.199085 0.0769561 
474 1 0.850883 0.149451 0.0996047 0.204322 -3.31876 0.271974 -0.0200626 -0.00970064 
513 1 0.795647 0.197268 0.0995723 0.955074 -3.29777 0.642712 0.592868 0.075855 
44 1 0.999128 0.148625 0.0515351 0.569408 -3.33168 0.410065 0.106571 -0.233899 
81 1 0.996231 0.197738 0.00507324 1.74946 -3.30122 0.618821 0.240217 -0.862683 
78 1 0.947425 0.149526 0.00132623 0.356922 -3.33233 0.271246 -0.0899824 -0.281821 
80 1 0.899943 0.148616 0.0489855 0.328647 -3.33699 -0.0794744 0.15446 0.566801 
117 1 0.89819 0.198552 0.0037285 0.517525 -3.33521 0.132196 0.10991 -0.392416 
119 1 0.949193 0.201357 0.0495514 0.321707 -3.2925 -0.433243 0.020118 0.132307 
478 1 0.952597 0.155402 0.0987962 1.63904 -3.33678 -0.585306 -0.81396 0.262818 
517 1 0.89833 0.20012 0.100191 0.369714 -3.31507 0.330062 -0.203915 -0.376269 
82 1 0.0494099 0.249406 0.00374225 0.381897 -3.36895 0.0788154 0.16161 -0.364385 
84 1 -0.00123793 0.24969 0.0506587 0.576259 -3.3017 -0.0619548 0.552336 -0.42944 
88 1 0.101671 0.251759 0.0540242 0.782363 -3.32081 -0.627376 -0.658829 -0.188963 
121 1 0.00132201 0.301614 -1.24429e-05 0.214047 -3.33743 -0.139804 -0.255106 0.183932 
123 1 0.0529513 0.303672 0.0499216 1.15614 -3.31457 -0.381765 -0.483362 0.00758804 
125 1 0.100949 0.30033 -0.000408462 0.642348 -3.31388 -0.427343 0.0926666 0.304769 
482 1 0.0472205 0.243252 0.100442 2.43397 -3.22798 1.05623 0.674091 0.00518247 
521 1 0.00584468 0.294866 0.101993 2.36545 -3.27937 -0.491951 0.618744 -0.62317 
525 1 0.0964106 0.303859 0.10006 1.39814 -3.29207 0.294672 -0.54537 0.42838 
86 1 0.14728 0.250986 0.00121378 0.977941 -3.32163 0.573878 -0.442635 0.137692 
92 1 0.199777 0.248969 0.0516105 0.318484 -3.29081 -0.221645 0.0744634 0.166527 
127 1 0.147974 0.29635 0.0527348 0.877404 -3.28188 0.501403 0.704856 0.0405043 
129 1 0.200747 0.298044 0.00527047 1.31416 -3.34398 -0.276408 0.321355 -0.206956 
486 1 0.149059 0.249583 0.102344 0.336367 -3.35242 0.224493 -0.0590172 0.426058 
529 1 0.201311 0.297441 0.102828 0.928906 -3.35629 -0.632418 0.0640779 -0.0952462 
90 1 0.248614 0.248732 0.00631068 1.53425 -3.30732 -0.0703678 0.274729 -0.607266 
96 1 0.299319 0.252051 0.0509764 0.403904 -3.38456 0.0470046 -0.0715158 0.186302 
131 1 0.249195 0.306093 0.0536053 2.30115 -3.26241 -0.383093 -0.839512 -0.433565 
133 1 0.296054 0.299883 -0.00345606 1.67962 -3.28774 0.239231 0.198268 1.20863 
490 1 0.248138 0.249491 0.102204 0.386808 -3.35489 0.155686 -0.260235 0.166742 
533 1 0.295726 0.297247 0.102312 0.960808 -3.34158 0.398991 0.299694 0.0707172 
94 1 0.350407 0.25094 0.0025013 0.658154 -3.35168 -0.414061 -0.267791 -0.0840007 
100 1 0.398908 0.253898 0.0534421 0.590377 -3.31589 0.103871 -0.116397 -0.400783 
135 1 0.34802 0.301589 0.0514288 0.43222 -3.3149 -0.125838 -0.393714 -0.0167291 
137 1 0.395825 0.29731 -0.000421072 0.89931 -3.31166 0.408898 0.161963 0.224405 
494 1 0.354189 0.250024 0.103021 1.33867 -3.25691 -1.0831 0.487175 -0.172324 
537 1 0.396134 0.302694 0.100995 0.79968 -3.34946 0.191051 -0.180553 0.097945 
98 1 0.450002 0.251828 0.000320456 0.556201 -3.36172 -0.052923 0.0266245 -0.0147404 
104 1 0.499036 0.245432 0.0505247 1.33226 -3.27469 0.229151 0.869552 -0.419088 
139 1 0.450421 0.300896 0.0522088 0.502094 -3.28279 -0.213398 -0.480035 -0.424274 
141 1 0.502155 0.299969 0.002149 0.464327 -3.38439 -0.300645 0.0744649 0.0486844 
143 1 0.550431 0.300846 0.052597 0.388512 -3.32556 -0.172851 -0.0622293 -0.0849525 
498 1 0.451477 0.251078 0.098969 0.685134 -3.32741 -0.305235 0.0294134 0.425794 
502 1 0.548883 0.251431 0.098535 0.575344 -3.31513 0.0452159 0.0633836 0.77391 
541 1 0.499589 0.299163 0.0987562 0.399314 -3.34833 0.287121 -0.00957456 0.450392 
106 1 0.648022 0.249839 0.0036617 1.00107 -3.34126 -0.160283 -0.407448 -0.866434 
108 1 0.597925 0.248901 0.0542626 1.18747 -3.26851 0.511993 0.483679 -0.79659 
147 1 0.649832 0.295535 0.0495036 1.57388 -3.27658 -0.112596 0.951572 0.154028 
506 1 0.650651 0.252058 0.100311 0.509882 -3.29454 0.141688 -0.211934 -0.0561272 
545 1 0.604358 0.304403 0.0997193 1.86975 -3.31894 -0.671301 -0.551561 0.29442 
110 1 0.74857 0.251929 0.00195529 0.922304 -3.32528 0.126022 -0.387396 -0.340618 
112 1 0.699049 0.249396 0.0462983 0.528169 -3.29697 0.087003 -0.256634 0.312206 
151 1 0.752074 0.300502 0.049699 0.74938 -3.29088 -0.195148 0.289519 -0.26963 
510 1 0.748135 0.249208 0.095806 0.344941 -3.27318 0.16407 0.117636 0.398746 
549 1 0.7031 0.299421 0.0950076 1.07237 -3.32758 -0.605763 0.186948 0.422908 
116 1 0.797146 0.249278 0.0511388 0.385488 -3.34844 0.660149 -0.196237 -0.199328 
153 1 0.799017 0.29763 -0.000471092 0.452366 -3.38037 0.100651 0.23135 -0.0552984 
155 1 0.846712 0.300307 0.0522691 0.553765 -3.34238 0.195515 -0.0775343 -0.265107 
514 1 0.852147 0.249658 0.099907 0.6259 -3.33772 -0.423038 0.173547 -0.239283 
553 1 0.800139 0.300379 0.100775 0.312148 -3.30921 0.1009 0.0655725 -0.351766 
120 1 0.901423 0.253146 0.0494013 0.708475 -3.34641 -0.252556 -0.254464 0.0120788 
159 1 0.953032 0.303587 0.0491197 1.07719 -3.32194 -0.187966 -0.633582 0.331835 
518 1 0.94583 0.251215 0.0976259 1.17911 -3.28584 0.32165 -0.0338784 -0.0460306 
557 1 0.897617 0.304748 0.0998658 1.11573 -3.36571 0.241 -0.159014 0.144871 
122 1 0.0522292 0.353893 0.00222758 0.482564 -3.3528 0.180247 -0.295125 -0.0501909 
128 1 0.101729 0.350123 0.0529793 0.642494 -3.27134 -0.365859 0.375237 -0.548762 
163 1 0.0512335 0.402035 0.0501834 0.646868 -3.32363 0.31798 -0.0221036 0.12158 
522 1 0.0494724 0.353711 0.103834 1.04558 -3.25792 0.51542 -0.561395 -0.481038 
565 1 0.0972921 0.402039 0.101533 0.988741 -3.34011 0.263732 0.0733213 0.0718706 
126 1 0.146915 0.350185 0.00165068 0.588538 -3.33866 0.406486 0.148629 -0.0622539 
132 1 0.194992 0.350435 0.0506082 0.751912 -3.33205 0.083504 -0.318893 0.0264124 
167 1 0.149144 0.40115 0.0502745 0.157363 -3.26206 0.215034 0.00645049 0.215009 
526 1 0.146604 0.352845 0.0993657 0.805111 -3.28764 0.440024 -0.535656 0.460761 
569 1 0.196713 0.398949 0.0995882 0.210148 -3.32888 0.278527 0.276676 0.156883 
130 1 0.246702 0.352074 0.000101712 0.781031 -3.32193 0.264834 -0.298683 0.123432 
136 1 0.298966 0.345826 0.0509721 1.04888 -3.27947 -0.196665 0.743137 -0.296959 
171 1 0.245571 0.396441 0.0510006 0.581927 -3.35375 0.331717 0.358269 -0.0600894 
173 1 0.299347 0.399575 0.00124391 0.340964 -3.37372 0.0635476 0.0803867 0.216188 
530 1 0.245708 0.350174 0.102474 0.472897 -3.26902 0.513718 0.0888634 -0.265582 
573 1 0.295927 0.401673 0.099589 0.468007 -3.35902 0.114701 -0.188286 0.102431 
140 1 0.396561 0.34821 0.0501177 0.371787 -3.3362 0.284244 0.251852 0.170433 
175 1 0.347971 0.395091 0.0510647 1.17352 -3.31118 -0.246859 0.591474 -0.140511 
534 1 0.342032 0.350944 0.100853 1.67357 -3.31885 0.611985 -0.278753 0.448608 
577 1 0.396369 0.399134 0.102047 0.722325 -3.26321 0.762 -0.277124 -0.849271 
138 1 0.446384 0.346326 0.00386676 0.846342 -3.30097 0.199517 0.627059 -0.0797751 
142 1 0.548487 0.352357 0.00208235 0.339421 -3.3273 0.18586 -0.271158 -0.214865 
144 1 0.498684 0.349837 0.0524593 0.234068 -3.31705 0.161401 0.0219168 -0.38592 
179 1 0.446739 0.400856 0.0480573 0.751554 -3.36103 -0.100661 -0.458725 0.120808 
181 1 0.498411 0.39688 -0.00102658 0.853055 -3.35178 -0.451761 0.367414 0.460011 
183 1 0.548221 0.398937 0.053386 0.392339 -3.33511 -0.0322921 0.393387 -0.439653 
538 1 0.449595 0.346629 0.098419 0.511556 -3.28323 -0.319953 0.541957 0.292006 
542 1 0.552131 0.352167 0.101077 0.668881 -3.31546 -0.232382 -0.311107 0.290897 
581 1 0.498236 0.398112 0.0987217 0.486364 -3.31651 -0.0408939 0.120014 0.51828 
148 1 0.597368 0.349596 0.0503579 0.599241 -3.2886 0.336855 0.310195 0.0677178 
187 1 0.646034 0.399661 0.0493649 0.483908 -3.37855 0.327542 0.363007 0.116802 
546 1 0.646858 0.355307 0.101495 1.39326 -3.32601 0.188355 -0.241401 0.0304814 
585 1 0.598089 0.405182 0.10221 0.717374 -3.33094 0.012675 -0.25106 0.104921 
150 1 0.747026 0.350846 -0.00288959 0.638042 -3.32173 0.29408 -0.222788 0.437373 
152 1 0.696014 0.350638 0.0492502 0.590511 -3.36355 -0.0570529 -0.16416 -0.207407 
189 1 0.695594 0.398724 -0.0028733 0.548192 -3.32572 0.0254159 0.203029 0.377093 
191 1 0.749591 0.396121 0.0466546 0.903032 -3.30845 -0.146343 0.507084 -0.0792044 
550 1 0.74737 0.352206 0.0958702 0.82542 -3.25599 0.367936 -0.405995 0.286201 
589 1 0.699369 0.397282 0.100361 0.922172 -3.30221 -0.360416 0.53515 -0.188342 
156 1 0.798957 0.352069 0.0511372 0.475324 -3.32407 0.013772 -0.315734 -0.284876 
195 1 0.848954 0.399111 0.0502251 0.36152 -3.3079 -0.0330675 0.168616 -0.0983545 
554 1 0.850165 0.353036 0.0977719 0.594266 -3.32319 -0.032963 -0.184544 0.442712 
593 1 0.797094 0.403232 0.0982924 0.718283 -3.30288 0.536591 -0.523644 0.195046 
124 1 1.00189 0.347942 0.0515795 0.696291 -3.3243 0.0834994 0.364156 0.105796 
161 1 1.00229 0.40118 0.00133297 0.410932 -3.33734 -0.0889898 -0.0228386 -0.225626 
561 1 1.00641 0.401627 0.100913 0.917346 -3.26219 -0.620529 0.0954283 0.205432 
160 1 0.90346 0.3492 0.0474211 1.26621 -3.25685 -0.585673 0.0840258 0.671554 
199 1 0.954511 0.396914 0.0489875 0.759416 -3.33665 -0.292134 0.296069 0.238006 
558 1 0.951166 0.350723 0.103326 1.10129 -3.37715 0.193284 0.0121567 -0.285979 
597 1 0.90164 0.398883 0.0987579 0.354397 -3.32145 0.0408433 0.0266332 0.174164 
168 1 0.105688 0.453736 0.0530957 1.18634 -3.28913 -0.615526 0.0376226 -0.251524 
203 1 0.0542921 0.501405 0.0499233 0.768222 -3.32765 -0.56545 0.249864 0.0730054 
208 1 0.0987367 0.55673 0.0501946 0.781727 -3.33892 0.020231 -0.305081 -0.0914797 
562 1 0.0576764 0.45577 0.102944 1.87777 -3.32649 -0.610134 -0.24127 -0.00185486 
601 1 0.00248197 0.501198 0.096407 1.40997 -3.3131 -0.25027 -0.358638 0.83322 
602 1 0.0469273 0.5528 0.104756 1.38377 -3.26859 0.612564 -0.454797 -0.664759 
605 1 0.0993511 0.507659 0.0989885 1.35202 -3.32184 0.439058 -0.113684 0.365026 
172 1 0.197159 0.451097 0.051625 0.36381 -3.32999 0.330925 -0.0291166 -0.183386 
207 1 0.151669 0.50681 0.0477013 0.964416 -3.37202 0.108938 -0.114834 0.317355 
212 1 0.203343 0.556709 0.0509441 2.0032 -3.27366 -0.606199 -0.660772 -0.869113 
566 1 0.150153 0.452363 0.100652 0.271601 -3.2746 0.020755 -0.0316072 0.190408 
606 1 0.151088 0.553745 0.0978711 0.344072 -3.34796 -0.0436323 0.0548023 -0.0646383 
609 1 0.19942 0.499566 0.101031 0.646159 -3.34422 0.245952 0.377934 -0.328918 
170 1 0.246232 0.448612 -0.00115088 0.602744 -3.31084 0.227077 0.539094 0.65766 
176 1 0.295758 0.449758 0.0499148 0.306839 -3.36806 0.122074 -0.0645165 -0.065918 
211 1 0.246419 0.49931 0.0489705 0.607566 -3.4143 0.067158 0.176968 0.0229796 
216 1 0.297366 0.547917 0.0498878 0.976986 -3.30759 -0.0306721 0.224223 -0.0649204 
570 1 0.247831 0.448399 0.101567 0.359361 -3.30431 0.0756499 0.212954 -0.320681 
610 1 0.246771 0.554138 0.0976223 1.25613 -3.30518 0.860224 -0.418248 0.466531 
613 1 0.300102 0.501518 0.0989368 0.221713 -3.33548 -0.267248 -0.0771065 -0.126036 
174 1 0.346932 0.453279 0.00122887 0.66585 -3.31802 -0.230949 -0.501397 0.0597669 
180 1 0.395166 0.448664 0.0524696 0.753988 -3.35134 0.332204 0.0400008 -0.337288 
215 1 0.349472 0.501742 0.0473881 0.479591 -3.28443 -0.099018 -0.313398 0.43878 
217 1 0.398034 0.499039 -0.000129985 0.231187 -3.32422 0.214473 0.256329 -0.0806436 
220 1 0.398835 0.550571 0.0441566 1.2034 -3.30622 0.165648 0.037705 0.691353 
574 1 0.347674 0.449256 0.0978544 0.476879 -3.31546 -0.104982 0.488955 0.129059 
614 1 0.352135 0.547198 0.0971186 0.978551 -3.31633 -0.0738561 0.5987 0.151085 
617 1 0.401955 0.503242 0.0965341 1.18593 -3.32152 -0.318992 -0.479349 0.400892 
178 1 0.445984 0.449901 0.00259557 0.39621 -3.34822 0.18895 -0.149989 -0.198215 
182 1 0.54487 0.447959 -0.000816815 0.786908 -3.3318 -0.0759112 0.328727 0.454135 
184 1 0.496471 0.450624 0.0535561 0.667101 -3.32592 0.256675 -0.191809 -0.623148 
218 1 0.449252 0.550956 0.000632574 0.317083 -3.34318 -0.168711 0.252207 -0.194623 
219 1 0.44763 0.499786 0.0493757 0.281707 -3.30194 0.0477237 -0.0225904 0.126341 
221 1 0.495882 0.504048 0.00356936 0.992547 -3.26244 -0.0504947 -0.774715 -0.644575 
223 1 0.541906 0.502256 0.0493763 1.06866 -3.29527 1.08959 -0.365451 0.372091 
224 1 0.499133 0.551972 0.0533374 0.550866 -3.25926 -0.0456902 0.222474 -0.51221 
578 1 0.448755 0.445146 0.0994682 1.46322 -3.33231 -0.254307 0.561694 0.353356 
582 1 0.544791 0.449633 0.102308 0.52999 -3.34661 0.200281 0.101264 0.104432 
618 1 0.452019 0.549031 0.0995601 0.651397 -3.24796 -0.760081 0.173151 -0.0684136 
621 1 0.498165 0.501682 0.100662 0.320772 -3.30202 0.0857717 -0.250849 0.236468 
622 1 0.55004 0.553445 0.102344 0.677999 -3.29891 -0.252107 -0.498864 -0.378573 
188 1 0.595049 0.45102 0.0501674 0.363879 -3.34393 -0.0242493 0.305819 0.200896 
225 1 0.594443 0.500701 0.00372858 1.02796 -3.3671 0.0624668 0.197162 -0.227123 
227 1 0.650135 0.504644 0.0518681 1.22493 -3.2823 -0.740554 -0.331335 -0.27003 
228 1 0.598414 0.554036 0.0500668 0.500283 -3.34077 -0.0202011 -0.576279 -0.10882 
586 1 0.647308 0.453137 0.0963335 1.06498 -3.31989 0.100041 -0.240233 -0.0208706 
625 1 0.594747 0.501206 0.100986 0.644327 -3.35657 0.289838 -0.00956094 -0.415539 
626 1 0.648741 0.55493 0.0973931 0.695058 -3.33629 0.0847975 -0.434636 0.369219 
192 1 0.702187 0.446965 0.0493317 1.11592 -3.36445 -0.577348 0.138236 0.0666462 
230 1 0.74738 0.548658 0.000285277 0.466006 -3.30214 0.528695 0.0432649 -0.394913 
231 1 0.751526 0.501064 0.0474227 0.846921 -3.35797 -0.14422 -0.36251 0.45579 
232 1 0.701528 0.549703 0.047599 0.603773 -3.28057 -0.383067 0.317752 0.348023 
590 1 0.74943 0.446274 0.0977057 0.860889 -3.27208 -0.125721 0.610396 -0.236461 
629 1 0.698496 0.501843 0.0959302 0.414822 -3.31581 0.357514 0.0687921 0.267029 
630 1 0.751768 0.549526 0.100497 0.369876 -3.34171 -0.274416 -0.157278 -0.407576 
194 1 0.848691 0.451244 0.00111725 0.472929 -3.29211 0.455875 -0.225939 -0.166229 
196 1 0.800063 0.450918 0.048606 0.332195 -3.3244 -0.185574 -0.109996 0.190064 
235 1 0.850304 0.500474 0.050024 0.19261 -3.34527 0.0578603 -0.155815 0.142322 
236 1 0.802674 0.548433 0.0496578 0.648588 -3.35024 -0.478587 0.195044 0.077133 
594 1 0.848813 0.447402 0.100254 0.629338 -3.32697 0.309373 0.426062 -0.0932716 
633 1 0.800656 0.496724 0.102144 0.852659 -3.31841 -0.0832594 0.408461 -0.647829 
634 1 0.850737 0.548244 0.100464 0.266387 -3.36895 0.143016 0.379017 -0.233011 
164 1 1.00358 0.44878 0.0546327 1.11195 -3.2986 -0.187865 0.363544 -0.506818 
204 1 0.996769 0.548647 0.0526077 0.853643 -3.33848 0.150339 0.178166 -0.503871 
200 1 0.89836 0.447108 0.0506693 0.339181 -3.35681 0.415594 0.364988 0.00219596 
238 1 0.945669 0.552501 0.00294467 1.19997 -3.27702 0.822157 -0.348131 -0.669574 
239 1 0.950608 0.496607 0.0486695 0.594274 -3.36088 -0.164752 0.0130479 0.1604 
240 1 0.901072 0.551027 0.0469687 0.753524 -3.27242 -0.584261 -0.0428229 0.798678 
598 1 0.950953 0.445592 0.100309 1.08242 -3.38126 0.0370415 0.512729 0.0916403 
637 1 0.901037 0.501614 0.100767 0.530293 -3.34811 0.0160615 -0.564394 -0.39079 
638 1 0.947116 0.550031 0.100129 0.832227 -3.30306 0.384433 -0.19338 -0.248357 
242 1 0.04719 0.649454 0.00245864 0.756094 -3.37267 0.191458 0.0681684 -0.371835 
243 1 0.0446164 0.597244 0.0513932 1.29412 -3.32425 0.505323 0.184187 -0.214626 
244 1 -0.00066443 0.648124 0.0526401 0.47612 -3.23579 0.22438 0.405177 -0.267444 
248 1 0.098405 0.65175 0.0462101 0.547504 -3.30088 0.00278822 -0.394717 0.104873 
642 1 0.0484018 0.650217 0.0966665 0.657033 -3.29993 0.0745035 0.122554 0.34396 
645 1 0.0950296 0.603741 0.0989924 1.15568 -3.33682 0.893359 -0.0713061 -0.0786434 
247 1 0.149684 0.603695 0.0455782 0.457722 -3.35846 0.0239062 -0.000371683 0.554457 
252 1 0.20473 0.650342 0.0492046 1.34311 -3.34128 -0.420137 0.117595 -0.260915 
646 1 0.149517 0.653655 0.0982066 0.441983 -3.3275 0.202272 -0.843301 0.0716408 
649 1 0.201175 0.603647 0.0959785 0.774157 -3.30003 -0.210946 0.303944 0.484979 
250 1 0.246718 0.649569 -0.00217888 0.658662 -3.35976 0.315151 0.304714 -0.286892 
251 1 0.254777 0.600423 0.0445451 1.76489 -3.2667 -0.504822 0.182604 0.535321 
256 1 0.29686 0.653981 0.048074 1.15305 -3.31215 0.381522 -0.632413 -0.141867 
650 1 0.25363 0.648871 0.0994102 1.24738 -3.32987 -0.438463 0.114148 -0.0832596 
653 1 0.303213 0.599169 0.0958814 0.932315 -3.33595 -0.33578 0.184803 0.279515 
254 1 0.347933 0.651525 -0.00585724 0.901664 -3.32502 0.0488138 0.00114835 0.648931 
255 1 0.349868 0.598737 0.0491168 0.403099 -3.3037 -0.247507 0.393837 0.14588 
260 1 0.399306 0.647677 0.0460223 0.797905 -3.35408 -0.185919 0.196189 0.237954 
654 1 0.352582 0.649382 0.0987789 0.577741 -3.35777 -0.212124 -0.00675749 -0.278755 
657 1 0.401468 0.596989 0.102252 1.02842 -3.37518 -0.155414 0.275491 -0.424811 
258 1 0.448718 0.651823 -0.00200367 0.441425 -3.34739 -0.0083987 -0.087134 0.10614 
259 1 0.448474 0.601023 0.049666 0.407988 -3.36757 -0.0107528 -0.0899347 -0.205724 
262 1 0.555008 0.652622 0.00534711 1.92704 -3.2485 -1.01011 -0.0200219 -0.618856 
263 1 0.551727 0.600044 0.0514013 0.870381 -3.3501 -0.451291 0.502844 0.0422526 
264 1 0.49922 0.654441 0.0515108 0.783762 -3.34176 0.437217 -0.276416 -0.144523 
658 1 0.450223 0.65075 0.0970602 0.880653 -3.28799 -0.423126 -0.0292469 0.435116 
661 1 0.496447 0.597601 0.10035 1.3104 -3.23307 0.646396 0.735705 -0.311957 
662 1 0.54921 0.65218 0.0995593 0.608982 -3.37116 0.544065 -0.0609915 -0.300905 
266 1 0.649179 0.651158 -0.00120297 0.288625 -3.30329 0.045915 -0.158627 -0.362194 
267 1 0.647336 0.601937 0.0460689 0.738348 -3.34276 0.340143 -0.10583 0.187927 
268 1 0.602312 0.655005 0.0485634 0.681057 -3.30077 0.195683 -0.294983 0.98399 
665 1 0.600712 0.602737 0.102102 0.455145 -3.28844 0.035625 0.392025 -0.442913 
666 1 0.653944 0.650904 0.100569 0.763335 -3.36266 -0.594237 0.382185 -0.325611 
271 1 0.748632 0.599631 0.0518922 0.544507 -3.34134 0.388417 -0.143944 -0.211139 
272 1 0.696229 0.652733 0.0448587 1.72549 -3.30233 0.23916 -0.397241 0.438861 
669 1 0.697895 0.600703 0.0973886 0.565875 -3.31841 0.196681 -0.0491336 -0.104479 
670 1 0.748326 0.648131 0.0972356 1.0011 -3.30829 -0.000844458 0.243678 0.153557 
274 1 0.848508 0.651414 -0.00560216 1.31767 -3.30833 0.0426861 0.0226742 0.497263 
275 1 0.8466 0.600693 0.0460171 1.40852 -3.31867 0.496479 0.0343619 0.616247 
276 1 0.802609 0.649559 0.0525675 1.15091 -3.34023 -0.356965 -0.0255512 -0.0211096 
673 1 0.799604 0.597353 0.103865 1.12128 -3.28539 0.287317 0.0980642 -0.787735 
674 1 0.850765 0.646033 0.101075 0.712907 -3.34768 0.0538211 0.260319 -0.260275 
241 1 0.999281 0.599565 0.00307772 0.446682 -3.34427 -0.105016 -0.175481 -0.534412 
641 1 0.999387 0.600206 0.103013 0.474408 -3.29712 -0.0729529 0.0109368 -0.208189 
277 1 0.898107 0.606081 0.00138801 1.38525 -3.30259 0.0885361 -0.424604 -0.15647 
278 1 0.953385 0.653727 0.00468287 1.21846 -3.2967 -0.296349 -0.00189096 -0.547549 
279 1 0.949107 0.60292 0.0508842 0.317562 -3.26927 0.116835 -0.646891 -0.19593 
280 1 0.902296 0.651767 0.0508536 0.546689 -3.34514 -0.620196 0.305732 -0.101855 
677 1 0.901875 0.599747 0.0986341 0.335545 -3.33955 -0.516634 -0.207189 0.0479567 
678 1 0.9507 0.648709 0.0975645 0.706353 -3.27177 -0.0154855 0.167075 0.699094 
281 1 0.0017249 0.702358 0.00188465 0.252146 -3.3459 0.077105 -0.0135826 0.0599412 
282 1 0.0514881 0.752625 -0.00336015 0.453277 -3.30593 -0.317744 -0.0835022 0.638753 
283 1 0.0518572 0.701391 0.0500105 0.400311 -3.37916 -0.238196 0.210333 -0.198266 
284 1 0.00272792 0.752336 0.0549876 1.20076 -3.31305 -0.335802 -0.106073 -0.637193 
285 1 0.0988336 0.702035 -0.00474913 0.625931 -3.35089 -0.152585 -0.373688 0.14071 
288 1 0.100893 0.750904 0.0470553 0.367296 -3.35699 -0.297727 0.116165 0.227634 
682 1 0.049083 0.75249 0.102322 0.856278 -3.34289 0.364584 -0.313763 -0.248946 
685 1 0.0997848 0.695714 0.0978867 1.15331 -3.24662 -0.376778 0.681039 0.0294964 
286 1 0.148002 0.749587 -0.00228324 0.34762 -3.30149 0.201607 0.219148 -0.0544289 
287 1 0.147168 0.699152 0.0487179 0.54271 -3.30099 0.329054 0.125963 -0.196264 
292 1 0.195998 0.747826 0.0445684 0.965594 -3.34365 0.0436906 0.34959 0.58211 
686 1 0.144482 0.748115 0.0992515 0.86914 -3.33404 0.509695 0.0599221 -0.115429 
689 1 0.201586 0.697847 0.0962215 0.995114 -3.38222 -0.115816 0.460519 0.334282 
291 1 0.251627 0.705167 0.0478556 1.58771 -3.24379 -0.62648 -0.548985 0.201905 
293 1 0.29808 0.701096 0.000139384 0.539034 -3.29999 0.0260898 0.0151451 -0.419124 
296 1 0.301043 0.750384 0.0513807 0.890011 -3.29705 0.0279196 0.42492 -0.440362 
690 1 0.249147 0.751417 0.0995092 0.427184 -3.3662 -0.255688 -0.0213888 -0.0792188 
693 1 0.300041 0.702449 0.0952669 0.710361 -3.27419 0.0796495 -0.261571 0.652175 
294 1 0.346687 0.751194 -0.00539775 1.19748 -3.3083 0.422256 -0.185243 0.793 
295 1 0.348567 0.697538 0.0466843 0.66627 -3.34827 0.412079 0.296334 0.160746 