ITEM: TIMESTEP
16250
ITEM: NUMBER OF ATOMS
4000
ITEM: BOX BOUNDS pp pp pp
3.2277497748794990e+00 3.7272250225119926e+01
-3.5965449090733919e+00 4.4096544909072421e+01
-3.4876702751069610e-01 4.0848767027511158e+01
ITEM: ATOMS id type xs ys zs c_csym c_peratom fx fy fz 
405 1 0.0295904 0.0709797 0.0988522 0.515337 -3.32305 -0.303645 -0.044062 0.066489 
7 1 0.0898483 0.063078 0.0520932 0.805425 -3.33318 -0.553687 -0.34632 -0.168176 
3 1 0.0212922 0.0250832 0.0497937 0.30289 -3.31452 0.326678 0.255244 0.11952 
766 1 0.0779169 0.0192507 0.10329 0.367349 -3.3655 0.0222093 -0.142118 -0.347114 
11 1 0.205632 0.0463708 0.0525415 0.999215 -3.19859 -0.770377 -0.0877565 -0.383474 
409 1 0.143181 0.0557801 0.103015 0.468602 -3.33325 0.0993399 -0.184404 -0.146803 
410 1 0.21353 0.0901428 0.0979131 0.778294 -3.28045 -0.126614 -0.465934 0.0857654 
372 1 0.137275 0.0143532 0.0512937 0.768924 -3.30154 -0.115647 -0.68517 0.574417 
770 1 0.197303 0.00676472 0.097586 0.733161 -3.32725 -0.248247 -0.39353 0.645264 
16 1 0.262932 0.0794574 0.0463261 1.83157 -3.24736 1.23708 0.370522 0.0957943 
15 1 0.319065 0.0321488 0.0508381 0.521218 -3.33716 0.151553 -0.27216 -0.407251 
413 1 0.264638 0.0387223 0.0981486 0.521016 -3.2978 -0.113925 -0.100549 0.271529 
414 1 0.33265 0.0700936 0.0995611 0.575102 -3.31507 0.0469693 0.0213201 0.278711 
13 1 0.256984 0.0408557 -0.00404177 1.91837 -3.31605 0.697182 -0.421165 0.218719 
20 1 0.388835 0.0644369 0.0507505 0.513377 -3.32184 0.33564 -0.0726115 -0.182703 
19 1 0.44249 0.01863 0.0432728 2.89568 -3.28195 -0.461114 -0.70649 0.748162 
418 1 0.449909 0.0559905 0.0998891 0.264856 -3.29434 -0.108868 0.148812 0.0466025 
421 1 0.498554 0.00414501 0.101054 0.483841 -3.32083 -0.250297 0.0176905 -0.550449 
417 1 0.387162 0.0233433 0.09981 1.41794 -3.28661 -0.544812 -0.386961 -0.196364 
24 1 0.50674 0.0476533 0.0513499 0.629714 -3.2962 0.361302 0.180495 -0.06581 
21 1 0.504224 0.00484791 -0.00481108 1.92817 -3.32635 -0.320424 -0.111844 0.246736 
28 1 0.621539 0.0281085 0.0499184 1.15995 -3.28745 0.243738 0.37473 0.337542 
422 1 0.564946 0.035447 0.0992263 1.32474 -3.33214 0.0131762 0.419999 -0.223586 
465 1 0.627266 0.0759307 0.101172 0.539222 -3.32749 -0.0437652 -0.0533641 -0.409094 
63 1 0.568251 0.087967 0.0525968 2.30277 -3.3001 0.219552 -0.768089 -0.189485 
61 1 0.51694 0.0920667 0.00076179 0.992298 -3.29149 -0.396202 -0.752862 -0.702832 
461 1 0.514893 0.0886343 0.105079 1.74244 -3.24143 -0.248629 0.131026 -0.555009 
32 1 0.732039 0.0180912 0.0491884 0.369917 -3.30513 0.19519 0.12516 0.0994769 
67 1 0.679158 0.0700897 0.0500484 1.13074 -3.29797 0.489093 -0.0474932 0.184612 
469 1 0.740781 0.0612161 0.0950415 0.758725 -3.35486 0.0648405 -0.0291994 0.297134 
426 1 0.679904 0.0216388 0.0986512 1.13934 -3.2918 -0.142054 0.479446 -0.033467 
30 1 0.742501 0.0620894 -0.00400445 0.376977 -3.3194 -0.0620688 0.010806 -0.127315 
26 1 0.679511 0.0283773 -0.000356897 1.09453 -3.3184 -0.145463 -0.405132 -0.234331 
36 1 0.796574 0.053361 0.0443974 0.800641 -3.2798 0.0048142 0.26518 0.75025 
35 1 0.848996 0.00589655 0.0460328 1.33419 -3.26507 -0.515959 -0.510597 0.627653 
434 1 0.85296 0.0440792 0.0990152 0.736608 -3.29198 -0.313965 0.623173 0.271562 
430 1 0.790343 0.00797466 0.101382 1.07553 -3.32813 -0.0583408 0.293575 -0.398244 
33 1 0.790487 0.012791 0.00043617 0.42014 -3.27883 0.0420713 -0.303864 -0.382578 
4 1 0.974029 0.077107 0.0439789 0.848878 -3.35494 -0.0486016 -0.0827091 0.663139 
40 1 0.90627 0.0420804 0.0521071 1.31948 -3.23268 0.970119 0.0392065 -0.517732 
401 1 0.968703 0.0352225 0.0982806 0.724502 -3.30277 -0.138785 0.0333686 0.336512 
438 1 0.920743 0.0843575 0.100835 0.905803 -3.38069 -0.15358 -0.078131 -0.0515674 
8 1 0.0425582 0.111544 0.0453018 1.11683 -3.2916 -0.494334 -0.387383 0.588725 
47 1 0.104581 0.145617 0.0455321 0.660519 -3.29015 0.150062 -0.0563536 0.365135 
406 1 0.0918081 0.104239 0.105628 1.83536 -3.29434 0.491287 0.127277 -0.498788 
445 1 0.0484973 0.154144 0.0960525 0.894852 -3.32806 -0.560538 -0.00641651 -0.0327938 
45 1 0.0482443 0.148197 -0.00264218 1.42347 -3.28809 0.158249 0.647373 -0.362607 
12 1 0.153349 0.0958361 0.0526245 0.612819 -3.31998 0.00123941 0.0384938 -0.33808 
52 1 0.167859 0.179473 0.0503218 0.717647 -3.28847 0.520515 -0.326801 -0.146715 
51 1 0.219733 0.127401 0.0474396 0.670271 -3.28237 -0.0434903 0.454062 0.446013 
449 1 0.15961 0.136204 0.101363 0.671382 -3.3404 0.0663535 0.135442 -0.445376 
450 1 0.234431 0.170135 0.0980226 0.834797 -3.38689 -0.41597 -0.154068 -0.0646481 
55 1 0.336745 0.110611 0.0470687 0.560905 -3.3027 -0.333457 0.0752178 0.155659 
56 1 0.289095 0.159519 0.0492992 0.430882 -3.33816 -0.119323 0.0964028 0.0796012 
453 1 0.286822 0.117351 0.0999015 1.96644 -3.31876 -0.419164 0.243267 -0.174083 
454 1 0.348367 0.153697 0.0960648 0.451132 -3.27113 -0.137286 0.120762 0.544166 
54 1 0.34145 0.153094 -0.00422383 0.906474 -3.3527 0.362594 0.189012 0.359412 
59 1 0.462894 0.098655 0.0522665 2.14503 -3.25266 -1.10002 -0.772969 -0.1143 
60 1 0.400726 0.145503 0.0473866 0.795916 -3.28454 0.423457 0.090499 -0.266499 
458 1 0.46385 0.139742 0.0977484 0.605154 -3.31992 0.265834 -0.219195 0.263092 
457 1 0.39585 0.107005 0.0981105 0.931057 -3.33469 0.293097 -0.492366 0.245684 
99 1 0.464851 0.18149 0.0513092 1.70053 -3.26933 0.895556 0.183067 -0.84619 
64 1 0.519551 0.132072 0.0446218 1.37493 -3.14263 0.519093 1.15198 0.760764 
103 1 0.581804 0.166746 0.0455143 0.633087 -3.28731 -0.0852602 0.547521 0.241076 
462 1 0.572337 0.125612 0.101482 1.15175 -3.29166 0.531997 0.437151 -0.231412 
501 1 0.529343 0.175572 0.0979859 0.627483 -3.35869 -0.157074 -0.0402422 -0.262311 
62 1 0.574817 0.12851 -0.00591424 0.925543 -3.26951 0.164436 -0.273257 0.0290424 
68 1 0.630777 0.123387 0.0495084 1.29087 -3.3274 0.305831 -0.602838 -0.174511 
72 1 0.694827 0.157577 0.0487281 1.03202 -3.26418 -0.0698369 -0.784717 -0.652704 
71 1 0.74667 0.104874 0.0466293 0.285685 -3.33801 -0.518332 -0.0240936 0.216787 
505 1 0.638804 0.161285 0.101736 0.99232 -3.30178 -0.0209422 0.114256 -0.432703 
466 1 0.690147 0.113301 0.0974511 0.272623 -3.33108 0.116809 -0.309939 -0.0291613 
75 1 0.862032 0.0873029 0.0488734 1.03859 -3.30205 -0.181678 0.675332 0.118779 
473 1 0.805195 0.0951942 0.0960776 0.512187 -3.34853 -0.334731 -0.00590316 0.282299 
76 1 0.810735 0.13845 0.0496115 0.620424 -3.28321 0.0983436 0.146347 -0.142379 
470 1 0.752162 0.148162 0.0956453 0.743808 -3.29966 0.367096 -0.482516 0.340981 
477 1 0.864144 0.13323 0.0992111 0.364227 -3.32705 0.381717 -0.0342694 -0.0561967 
80 1 0.871646 0.174129 0.0506321 0.500319 -3.35329 0.397506 0.404331 -0.219764 
474 1 0.813533 0.185614 0.0975934 0.863347 -3.29738 0.337826 -0.245811 0.197602 
43 1 0.984538 0.162406 0.0480374 0.991618 -3.31876 0.647709 0.165829 -0.0739619 
79 1 0.922227 0.125419 0.0473756 0.217557 -3.29029 -0.051521 -0.152479 0.242908 
402 1 0.980547 0.123287 0.0954441 1.40701 -3.30699 0.357581 -0.698132 0.28511 
441 1 0.929664 0.167282 0.0978724 0.459896 -3.30433 -0.225194 0.438446 0.0834675 
446 1 0.110289 0.185961 0.0995618 0.755792 -3.267 -0.0328264 0.139737 -0.265707 
48 1 0.0572203 0.195623 0.0402775 3.26903 -3.31843 -0.287509 -0.275575 0.813874 
83 1 0.00298716 0.244902 0.0524101 1.13336 -3.29626 0.589141 0.240938 -0.483276 
485 1 0.0641914 0.238902 0.0991722 0.660132 -3.33144 -0.40153 -0.812318 -0.0912038 
46 1 0.117833 0.188687 -0.00328659 1.68519 -3.28185 -0.790472 -0.354954 0.00841385 
87 1 0.12244 0.227019 0.0525967 1.14383 -3.32349 -0.194309 0.461154 -0.56351 
91 1 0.234756 0.213439 0.0501805 0.898879 -3.34642 0.338268 -0.254592 0.24042 
92 1 0.188966 0.261385 0.0530274 0.468616 -3.35879 -0.118876 0.129037 -0.0176585 
489 1 0.178589 0.216538 0.0991215 0.638407 -3.25957 0.572929 0.48555 0.0358503 
89 1 0.17936 0.221586 -0.00322772 0.819064 -3.22169 0.0782194 -0.517305 0.632001 
486 1 0.127547 0.27053 0.0996886 0.4751 -3.32246 0.499733 0.00479484 -0.122833 
490 1 0.250509 0.254149 0.103195 0.92394 -3.3355 -0.447961 -0.45261 -0.6572 
95 1 0.354407 0.193843 0.0480598 0.462784 -3.33061 0.22774 0.272765 0.143278 
96 1 0.306389 0.24433 0.0495533 0.325181 -3.32356 -0.259131 0.266314 0.412365 
493 1 0.300777 0.203943 0.100717 0.455138 -3.32864 -0.345675 -0.153977 -0.384191 
494 1 0.364539 0.238315 0.097676 0.201586 -3.35825 0.181155 -0.147432 0.187326 
100 1 0.422666 0.235489 0.0493257 2.11247 -3.2911 -0.423969 -0.970317 0.0519365 
139 1 0.487353 0.263505 0.0513685 1.53257 -3.25534 -0.0179198 0.670442 -0.302597 
497 1 0.41417 0.186854 0.0966546 0.583564 -3.2505 -0.816237 0.147767 0.689496 
498 1 0.474217 0.220801 0.102522 1.74267 -3.30763 0.608407 0.461731 -0.248543 
537 1 0.429587 0.27338 0.100563 0.268179 -3.30584 -0.103643 -0.0532809 -0.124528 
104 1 0.5343 0.216137 0.0463949 0.675812 -3.36974 -0.0635562 -0.258889 0.221048 
108 1 0.593752 0.253893 0.0472976 0.893103 -3.28947 0.401508 -0.0376888 0.16176 
502 1 0.595517 0.212296 0.0964176 1.03551 -3.34579 -0.300121 -0.279002 0.010886 
541 1 0.539612 0.258447 0.097599 0.742684 -3.27446 0.320433 -0.123819 0.228985 
102 1 0.54013 0.264239 0.000684034 1.02986 -3.24924 -0.0254824 -0.395257 -0.394317 
105 1 0.591766 0.213951 -0.00478879 0.421179 -3.28881 -0.191834 -0.139585 0.214955 
107 1 0.645327 0.203313 0.0429353 1.51912 -3.32356 0.182742 0.388479 0.500163 
509 1 0.704164 0.193784 0.0960173 0.989145 -3.29304 0.049311 0.776911 0.588767 
112 1 0.716372 0.237738 0.047932 1.35106 -3.28336 -0.894401 0.194767 -0.186121 
506 1 0.661173 0.244148 0.0991766 1.15744 -3.33122 0.120144 -0.0387815 -0.191043 
115 1 0.821578 0.222542 0.0474017 1.25817 -3.32142 0.536033 0.719636 0.0978676 
111 1 0.761154 0.188149 0.0470607 0.480114 -3.24376 0.00959669 0.0722905 -0.125597 
517 1 0.834711 0.267192 0.103128 0.86727 -3.31804 -0.146126 0.368515 -0.460535 
513 1 0.764453 0.236515 0.0975179 1.87482 -3.25652 0.690212 -0.79516 0.46874 
116 1 0.775383 0.277476 0.0517755 0.421149 -3.28944 0.150421 0.0681023 -0.497762 
442 1 0.993077 0.205343 0.0991836 0.740727 -3.32116 0.565226 -0.35906 0.0192496 
44 1 0.939128 0.213128 0.0499873 0.573229 -3.30886 -0.545333 -0.512632 -0.0651393 
119 1 0.88935 0.26199 0.048142 0.500712 -3.35851 -0.115582 -0.190133 0.256524 
478 1 0.877239 0.219533 0.100684 0.761513 -3.34012 0.452897 -0.313706 -0.266224 
481 1 0.943901 0.253379 0.0991613 0.441573 -3.33429 -0.164917 0.192375 0.266881 
88 1 0.0708535 0.279346 0.0490961 0.453009 -3.30891 0.211532 -0.435246 -0.330627 
123 1 0.0237479 0.326696 0.0536105 1.4253 -3.26012 0.0885635 1.074 -0.830555 
128 1 0.0961594 0.362397 0.0466377 1.44407 -3.33263 -0.583916 0.0628421 0.347284 
482 1 0.0134707 0.286963 0.0982056 0.178811 -3.22159 -0.177752 -0.101307 0.312303 
525 1 0.0820092 0.31953 0.0952611 0.62181 -3.26003 0.440456 0.366092 0.429143 
125 1 0.0840298 0.315919 -0.00141989 1.33531 -3.30142 0.176801 0.507851 -0.0354305 
127 1 0.140978 0.313698 0.0502464 0.431378 -3.32408 0.085733 -0.368561 -0.249686 
132 1 0.211207 0.344106 0.053416 0.683342 -3.32478 0.0902305 0.394818 -0.327252 
526 1 0.153962 0.35599 0.0987435 0.561755 -3.36658 -0.418453 0.0874765 0.0334332 
529 1 0.197615 0.303941 0.101141 0.368384 -3.34029 0.269131 -0.0292565 -0.0436162 
131 1 0.259401 0.295738 0.052569 0.23513 -3.35324 -0.211271 -0.151018 -0.0792673 
129 1 0.1995 0.300609 0.00278951 0.496482 -3.35756 -0.184151 0.473958 -0.203008 
126 1 0.154719 0.355133 0.000699651 0.96273 -3.33577 -0.0997541 -0.23554 -0.154817 
136 1 0.322678 0.331924 0.0481705 0.811556 -3.26597 0.362587 -0.808184 0.190927 
533 1 0.317603 0.288429 0.100021 0.381426 -3.30609 -0.213621 -0.122305 -0.150292 
130 1 0.265925 0.338478 0.00164011 0.222441 -3.34284 -0.106592 -0.115928 -0.256771 
135 1 0.371686 0.279953 0.0475027 0.406527 -3.29544 -0.196792 0.0825315 0.257145 
530 1 0.272164 0.338317 0.102424 0.97821 -3.33588 -0.524478 0.0127249 0.095229 
133 1 0.314536 0.286407 0.000720981 0.203768 -3.39261 -0.143124 0.409472 -0.215593 
134 1 0.383206 0.320147 -0.00117044 1.791 -3.23215 -1.07574 -0.145211 0.00672323 
534 1 0.378971 0.322524 0.0983776 0.450957 -3.31926 -0.104775 0.135363 0.39748 
140 1 0.431821 0.31584 0.0499744 0.672188 -3.33272 0.924993 0.0572726 0.0154077 
538 1 0.494116 0.308247 0.0981282 0.383558 -3.32338 -0.262353 0.244482 -0.273601 
577 1 0.44265 0.357671 0.10245 0.508446 -3.30988 0.504298 0.168826 -0.584317 
144 1 0.498284 0.355042 0.0483387 0.737479 -3.35998 -0.195347 -0.429832 0.321442 
137 1 0.429394 0.270099 -0.00369211 1.37328 -3.32298 0.078229 0.35804 0.0829366 
143 1 0.549679 0.306028 0.04767 1.20525 -3.32476 -0.226593 -0.1168 0.586693 
545 1 0.606123 0.289464 0.100506 2.82427 -3.27349 0.0515628 1.00923 -0.33942 
148 1 0.614419 0.3381 0.0508775 0.629053 -3.26299 -0.558054 0.0766287 0.21293 
542 1 0.556354 0.345599 0.102594 0.807821 -3.28977 0.391944 -0.108116 -0.885426 
145 1 0.603838 0.299286 -0.000311567 0.325747 -3.2606 0.201 0.177819 -0.0984281 
142 1 0.557017 0.347865 -0.00180309 0.465222 -3.35033 -0.257799 -0.133314 -0.0668807 
147 1 0.658149 0.288822 0.0507044 1.14408 -3.33532 0.763151 0.291867 0.121863 
151 1 0.726459 0.330281 0.0617377 5.40208 -3.20423 -0.101312 -0.80615 -1.44904 
549 1 0.667036 0.3355 0.100035 1.12701 -3.26187 -0.400079 -0.476218 0.67201 
510 1 0.722072 0.282789 0.0977207 1.09664 -3.23698 -0.700859 0.253812 0.407347 
120 1 0.838137 0.311016 0.0507487 0.412403 -3.36069 0.39578 0.111621 -0.0530531 
155 1 0.789263 0.362093 0.0504073 0.651739 -3.25173 0.35749 -0.290487 0.458079 
157 1 0.850938 0.351702 0.000541048 0.578364 -3.32493 -0.282675 -0.371117 0.0664786 
514 1 0.786523 0.31957 0.102386 0.634734 -3.28824 0.0334502 0.0291326 0.108791 
557 1 0.847401 0.355766 0.100899 0.661857 -3.34549 -0.0984606 -0.0649895 0.192163 
84 1 0.95833 0.297541 0.0526398 0.974309 -3.2901 -0.47849 -0.621129 -0.450325 
159 1 0.908053 0.343407 0.0540587 0.840737 -3.2705 -0.55066 0.0521483 -0.677032 
518 1 0.897672 0.30366 0.099871 0.351248 -3.35815 -0.0782734 -0.238915 0.406591 
521 1 0.964248 0.339016 0.0998965 0.467438 -3.27712 0.188419 -0.227239 0.476455 
522 1 0.0366861 0.371987 0.100932 1.16633 -3.27797 -0.273441 0.0630634 -0.873713 
163 1 0.03449 0.412556 0.0540485 1.33879 -3.32813 0.536934 -0.0577305 -0.534425 
168 1 0.109035 0.445508 0.0484211 1.20395 -3.30548 -0.294737 0.706605 0.303386 
565 1 0.102042 0.407746 0.099477 0.820064 -3.29206 -0.255337 -0.928994 -0.2702 
167 1 0.158231 0.40016 0.0496206 0.746865 -3.34162 0.502111 -0.359758 -0.10089 
172 1 0.227338 0.432239 0.059165 3.05742 -3.16815 -0.542175 -0.506929 -1.35049 
569 1 0.22067 0.389183 0.10077 0.339961 -3.32206 -0.285491 -0.4591 -0.0326263 
566 1 0.164568 0.441172 0.0996918 0.693462 -3.27971 0.193115 0.213823 0.112458 
166 1 0.164901 0.440412 -0.00386556 1.5713 -3.30066 0.201069 -0.530925 0.314458 
171 1 0.280906 0.37804 0.0537939 1.45953 -3.22035 -0.97896 0.423952 -0.183187 
176 1 0.337268 0.418696 0.0526686 0.509348 -3.24702 0.866823 -0.112877 0.157073 
573 1 0.334778 0.374325 0.100762 0.682385 -3.25924 -0.380893 -0.136518 0.628951 
570 1 0.284689 0.422717 0.102039 0.506193 -3.25107 0.387579 0.0570062 0.263229 
175 1 0.38561 0.366766 0.0530449 0.624623 -3.24518 0.364285 0.109239 -0.273048 
179 1 0.447759 0.402832 0.0496261 0.448452 -3.34494 0.0471081 -0.00356614 0.178016 
578 1 0.460111 0.443069 0.10104 1.55331 -3.36498 -0.129913 0.393491 0.0273794 
574 1 0.394298 0.410359 0.102531 0.282537 -3.30583 0.0390291 0.430766 -0.151831 
183 1 0.564319 0.389024 0.0489955 0.779414 -3.3037 0.00344219 -0.159088 0.252909 
184 1 0.517744 0.435746 0.0541613 2.28031 -3.22563 -0.784412 0.258355 0.0268262 
187 1 0.623136 0.427999 0.0573745 1.74705 -3.31768 0.253088 -0.0618081 -0.780631 
581 1 0.512637 0.393176 0.102912 1.70071 -3.26565 -0.985852 0.139641 -0.446001 
585 1 0.568607 0.432152 0.103841 0.800535 -3.26259 0.0129756 0.43409 0.166697 
546 1 0.620695 0.383032 0.0999003 0.632087 -3.32271 -0.366911 0.0560604 0.444342 
553 1 0.73286 0.373098 0.100536 1.67838 -3.22276 -0.495963 -0.355031 0.788858 
152 1 0.672329 0.375998 0.0520647 1.14274 -3.27084 0.472101 0.508694 -0.0896142 
550 1 0.688072 0.422684 0.104262 2.25151 -3.24194 -0.482937 -0.884312 -0.593743 
156 1 0.742068 0.409631 0.0499562 1.39077 -3.24944 -0.453953 0.189438 0.277388 
593 1 0.744792 0.457924 0.104261 0.832691 -3.255 0.467301 0.121561 0.0618314 
193 1 0.750587 0.451051 0.00212496 0.66301 -3.36018 -0.372606 0.217353 -0.41632 
160 1 0.854872 0.392755 0.0513555 0.688751 -3.32055 0.150358 0.419871 0.198685 
195 1 0.798514 0.447125 0.0541749 1.50962 -3.31799 1.01986 0.0250402 0.0274624 
197 1 0.864917 0.437243 0.00726142 1.38933 -3.32505 -0.768706 -0.33263 -0.439773 
554 1 0.790289 0.405821 0.108141 2.64543 -3.28918 0.931877 0.480954 -0.297363 
597 1 0.860617 0.437608 0.101026 0.435105 -3.37873 -0.185002 0.115847 0.108981 
154 1 0.797407 0.399398 0.00205713 1.12697 -3.25956 0.299239 0.870931 -0.0115864 
124 1 0.965094 0.381239 0.0566213 2.90549 -3.18799 1.29716 -0.24869 -1.36937 
199 1 0.920136 0.428988 0.055162 0.509977 -3.2751 -0.0888179 0.090259 -0.409858 
561 1 0.980579 0.421444 0.101169 0.313798 -3.24592 -0.0626725 0.155572 0.306263 
558 1 0.915562 0.386617 0.10108 0.488939 -3.2352 -0.926111 0.248536 0.885637 
203 1 0.0573803 0.497199 0.0552073 0.816465 -3.36935 0.251642 -0.278472 -0.304179 
605 1 0.116825 0.492863 0.105671 1.87066 -3.29462 -0.117898 -0.460254 -0.691252 
602 1 0.0672347 0.537594 0.106608 1.36228 -3.30514 -0.163476 0.39094 -0.478253 
208 1 0.128126 0.529645 0.0468116 1.98952 -3.23657 -0.884196 0.07127 0.6799 
562 1 0.0513218 0.454404 0.100613 0.579586 -3.33729 -0.200158 0.320959 0.00381116 
202 1 0.0648297 0.537072 0.00144623 0.460727 -3.34887 -0.268621 0.054648 0.135686 
205 1 0.115633 0.48985 -0.000452999 0.410037 -3.27556 -0.634476 -0.206834 0.203335 
207 1 0.173605 0.482527 0.0484257 0.50771 -3.34155 0.0505881 -0.349192 0.38347 
212 1 0.237688 0.520193 0.0511413 0.770026 -3.31491 -0.55123 -0.433387 -0.250481 
609 1 0.230642 0.472579 0.0995309 0.612372 -3.253 0.0508954 0.883039 0.280912 
606 1 0.179868 0.527084 0.0975542 0.771288 -3.28474 -0.0613473 -0.151223 0.29933 
206 1 0.179658 0.522405 -0.00103098 0.777595 -3.24974 0.62226 0.466321 -0.194521 
211 1 0.290575 0.465152 0.051 1.12403 -3.25849 -0.314516 0.796102 0.00790009 
215 1 0.349569 0.505318 0.051445 0.394693 -3.33232 0.328565 -0.0965195 -0.154048 
613 1 0.344817 0.463241 0.100719 0.539724 -3.36987 0.420513 -0.24814 0.291947 
610 1 0.293235 0.510037 0.0978951 0.757307 -3.25084 0.175983 0.0578698 -0.0809349 
174 1 0.342275 0.465295 -0.000435839 1.08999 -3.34708 -0.217062 -0.214616 0.0117806 
180 1 0.40217 0.453969 0.0489643 0.510139 -3.30473 -0.43863 0.025511 0.356866 
219 1 0.458574 0.492702 0.0519293 1.09748 -3.27143 0.400597 -0.153065 0.0548631 
621 1 0.469454 0.534606 0.105168 0.409506 -3.26326 -0.186952 0.047801 -0.489419 
220 1 0.410764 0.544432 0.0541461 0.832395 -3.34792 -0.00812055 -0.338947 -0.229763 
617 1 0.410082 0.499289 0.102027 0.871517 -3.29255 -0.768206 -0.371938 0.142367 
188 1 0.571274 0.476588 0.0513855 1.3477 -3.31264 0.42334 0.102549 0.622319 
582 1 0.519003 0.484767 0.107838 1.40203 -3.24851 -0.591432 -0.199738 -1.18517 
223 1 0.525337 0.523578 0.0559689 1.4899 -3.30077 -0.265169 0.276021 -0.173362 
586 1 0.583749 0.523934 0.103472 1.81235 -3.23896 -0.516685 -1.00106 -0.238837 
191 1 0.691302 0.460586 0.0506922 0.813873 -3.28918 0.038453 -0.295233 0.14234 
192 1 0.640753 0.505815 0.0510944 2.23307 -3.26682 -0.248681 0.851264 0.371722 
231 1 0.703791 0.547295 0.0557223 0.844886 -3.35435 -0.41377 -0.644336 -0.27659 
589 1 0.635621 0.468678 0.102875 1.07978 -3.21274 -0.992595 -0.051241 -0.127771 
590 1 0.692361 0.502523 0.103764 0.826875 -3.27411 0.913321 1.0256 -0.113795 
186 1 0.629581 0.470714 0.00151634 1.00503 -3.30163 0.299353 -0.746082 -0.173044 
196 1 0.754255 0.495518 0.0518467 0.470061 -3.29164 -0.0724822 0.423692 -0.146181 
194 1 0.815669 0.4863 -0.00163625 1.71882 -3.27621 -0.696297 -0.0735974 0.762825 
235 1 0.817939 0.530333 0.0451524 2.45401 -3.26854 0.145975 -0.0330347 0.88516 
233 1 0.761554 0.538539 0.000881664 0.336755 -3.31297 -0.504714 -0.117169 -0.110814 
200 1 0.871225 0.48082 0.0544313 0.747194 -3.28844 -0.500968 -0.22975 -0.087284 
594 1 0.809468 0.494536 0.0998218 1.60381 -3.29139 0.0299897 -0.665556 0.221521 
633 1 0.76247 0.541539 0.10655 1.25843 -3.32934 -0.52061 -0.175075 -0.454569 
637 1 0.874928 0.524542 0.0994035 0.61464 -3.34795 0.432207 0.297414 0.233111 
201 1 0.992794 0.506626 0.00100171 1.29923 -3.26637 0.51984 -0.607784 0.562147 
164 1 0.986452 0.462707 0.0535354 0.295615 -3.34888 0.380022 0.0979538 -0.616206 
198 1 0.925413 0.469301 0.00192491 1.00895 -3.30244 0.703658 0.0990285 0.186384 
239 1 0.938101 0.512813 0.0495637 0.701312 -3.26741 0.0554539 0.0760315 0.546979 
601 1 0.994821 0.50273 0.102257 0.804464 -3.28662 0.484956 0.633023 0.165826 
598 1 0.929487 0.472414 0.0986527 0.474005 -3.28682 -0.490853 0.0226107 0.646289 
237 1 0.880736 0.519624 0.00581549 1.31621 -3.24521 -0.141477 0.347136 -0.358176 
243 1 0.075363 0.57797 0.0501355 1.20732 -3.36081 -0.237262 -0.0896321 0.0946293 
642 1 0.077338 0.624989 0.103574 0.282372 -3.29447 0.0242304 0.0952025 -0.155646 
245 1 0.129867 0.570151 -0.00233183 1.34779 -3.32461 0.198275 0.665319 -0.0813487 
641 1 0.0198119 0.587042 0.0996661 1.70127 -3.29039 -0.523833 -0.0479626 0.122414 
244 1 0.0238635 0.628337 0.0538156 1.27973 -3.29143 0.103465 0.579574 -0.117967 
241 1 0.0101541 0.59183 0.000121813 1.93608 -3.25523 0.590151 -0.598022 0.670545 
248 1 0.13214 0.617804 0.0506932 0.3792 -3.30581 0.420886 0.0453609 0.0188842 
645 1 0.131014 0.576956 0.103072 0.510795 -3.33569 -0.540977 -0.301863 -0.108167 
247 1 0.182794 0.569353 0.049004 0.4117 -3.3026 0.206679 0.130985 -0.0632971 
649 1 0.240112 0.56333 0.100581 0.825045 -3.2913 0.531263 0.144799 -0.363482 
251 1 0.245776 0.604507 0.0485961 0.397246 -3.32365 0.0588564 -0.0144918 -0.000277851 
646 1 0.190259 0.613205 0.0982913 0.506182 -3.30075 0.191383 0.0627581 0.294205 
249 1 0.190918 0.612691 -0.00273822 0.320111 -3.37131 -0.458604 0.126089 0.217486 
210 1 0.237868 0.565099 -0.00291118 0.939238 -3.33755 -0.0851217 -0.316392 0.23346 
614 1 0.34935 0.550471 0.100482 1.4302 -3.29116 0.771023 -0.345475 -0.00853298 
216 1 0.298529 0.552669 0.0461843 1.06733 -3.27472 -0.0443786 0.70677 0.304016 
255 1 0.360926 0.590255 0.048617 0.788441 -3.34477 -0.0495355 0.21854 0.0913003 
653 1 0.30517 0.596001 0.0970899 1.01637 -3.29929 -0.397744 0.231706 0.169357 
259 1 0.424723 0.628607 0.0471138 1.09696 -3.28854 -0.259925 -0.344703 0.843163 
224 1 0.476621 0.577111 0.0503021 0.247502 -3.27907 -0.258786 -0.165071 0.382141 
618 1 0.42009 0.583269 0.104592 1.2781 -3.35039 -0.226304 0.202097 -0.488401 
622 1 0.483221 0.618729 0.0960271 1.68459 -3.32263 -0.38374 0.293633 0.554772 
227 1 0.585607 0.558726 0.0499616 1.27039 -3.29459 0.197905 0.374641 0.347839 
228 1 0.541338 0.609349 0.0512002 0.862882 -3.31034 0.153948 0.34692 -0.0540791 
625 1 0.531125 0.569864 0.10209 0.38841 -3.31036 0.197023 0.135951 -0.121369 
626 1 0.596725 0.606554 0.103493 0.882488 -3.26613 -0.508608 -0.510743 -0.313553 
226 1 0.595418 0.605132 0.00113334 0.50925 -3.32385 0.00601685 -0.400075 0.0407798 
222 1 0.530637 0.569187 -0.00061155 0.582691 -3.2769 0.570799 0.181081 0.0248048 
629 1 0.64365 0.554466 0.105364 0.538458 -3.27357 0.814449 0.425647 -0.219866 
232 1 0.651317 0.591633 0.0544784 1.87205 -3.32244 0.0939202 0.594297 -0.525752 
230 1 0.712108 0.590198 -0.00379883 1.84306 -3.35876 -0.202243 -0.292872 0.719226 
271 1 0.719539 0.628059 0.051189 0.895238 -3.30861 -0.946843 -0.0273947 -0.603254 
630 1 0.711059 0.591257 0.10236 0.713929 -3.19207 -0.73447 -1.09989 0.294069 
669 1 0.660165 0.635828 0.0998203 1.01149 -3.29012 0.354941 0.491121 0.110298 
236 1 0.765514 0.579344 0.0529016 1.25416 -3.26999 0.573987 -0.00838317 -0.544986 
234 1 0.823765 0.572872 0.00334633 1.08303 -3.3175 0.412029 0.195289 -0.520156 
275 1 0.837193 0.616391 0.0515116 0.82721 -3.28021 -0.151905 -0.352542 -0.269554 
634 1 0.827461 0.577163 0.100494 1.25276 -3.32017 0.107291 -0.679725 0.0913162 
673 1 0.772808 0.61981 0.0971674 2.03532 -3.12379 1.01845 0.620338 0.659218 
273 1 0.781272 0.623137 0.00212582 1.77006 -3.29125 -0.710025 -0.550317 -0.0926768 
204 1 1.00813 0.541643 0.054505 2.09578 -3.31243 0.0618015 0.712064 -0.20816 
240 1 0.885129 0.566063 0.051244 0.356972 -3.38228 0.263549 -0.0355112 0.035922 
279 1 0.958046 0.599004 0.0523602 0.868241 -3.31267 -0.67576 -0.575555 0.115557 
638 1 0.947052 0.555668 0.0997915 0.476785 -3.35825 -0.184521 0.140924 -0.105299 
677 1 0.891485 0.609541 0.1017 1.41947 -3.29818 0.567473 -0.32398 0.0121827 
238 1 0.949794 0.55494 0.00528778 1.20212 -3.32027 -0.469097 0.221456 -0.0314699 
277 1 0.892873 0.605261 0.000110343 0.779931 -3.36251 0.186754 -0.24924 0.126406 
283 1 0.0868829 0.668357 0.0537837 0.517974 -3.31421 -0.69606 -0.0180364 0.0330532 
284 1 0.0340746 0.718726 0.0535704 0.700227 -3.28487 0.346933 -0.484194 -0.297136 
681 1 0.0240581 0.675332 0.102237 0.558224 -3.34411 0.223428 -0.224636 -0.215178 
682 1 0.0914834 0.710682 0.103978 0.567959 -3.36771 0.0483904 0.102501 -0.418285 
285 1 0.0915107 0.71102 -0.000247661 0.397183 -3.32289 -0.354391 0.434086 0.0179291 
685 1 0.138934 0.660746 0.101505 0.366053 -3.31443 0.488121 0.359905 0.089939 
252 1 0.197028 0.655258 0.0522312 0.567308 -3.33941 -0.229087 -0.137451 -0.228194 
287 1 0.146642 0.704883 0.048834 0.485284 -3.32845 0.0989427 0.431838 0.623684 
689 1 0.207395 0.699414 0.0978644 1.11989 -3.3464 -0.642763 -0.431184 0.567068 
650 1 0.256371 0.64589 0.102001 0.717915 -3.27426 -0.210437 0.38215 0.13286 
246 1 0.136615 0.663693 0.00201544 0.692133 -3.26766 0.1725 -0.726796 -0.385714 
256 1 0.305666 0.641234 0.053936 1.21377 -3.28707 0.601498 0.11144 -0.678091 
657 1 0.366535 0.632673 0.099364 0.581265 -3.34246 0.31509 0.282648 -0.318892 
291 1 0.26034 0.689038 0.0498003 1.25259 -3.25864 -0.0113645 0.454866 0.281218 
260 1 0.374715 0.678444 0.0527832 0.501072 -3.34477 -0.201303 0.00281081 -0.04535 
654 1 0.318257 0.686342 0.101274 0.37113 -3.36811 -0.310213 -0.229872 -0.0751708 
297 1 0.379075 0.721949 -0.000346719 0.689542 -3.29972 -0.271345 -0.577584 0.0250289 
264 1 0.441026 0.71043 0.0502853 1.59986 -3.28504 -0.632121 0.596153 0.0142517 
263 1 0.486838 0.664526 0.0521159 0.726327 -3.3096 0.234319 -0.547581 0.0345998 
658 1 0.37829 0.723763 0.104556 1.22632 -3.31118 0.26435 -0.23523 -0.65893 
661 1 0.428326 0.672141 0.104362 1.1067 -3.3216 0.200962 -0.275641 -0.513558 
662 1 0.490013 0.709806 0.101868 1.08456 -3.26755 0.731375 -0.367389 -0.285554 
262 1 0.497309 0.704627 0.00311946 0.949288 -3.31207 -0.38152 -0.244816 -0.492234 
267 1 0.600007 0.649024 0.0539898 1.2393 -3.33209 -0.129695 -0.450492 -0.176329 
268 1 0.550741 0.697669 0.0528057 0.392975 -3.30802 0.0868463 -0.0007828 0.188326 
266 1 0.612437 0.688102 0.0065266 1.22927 -3.29263 -0.481307 -0.284352 -0.524084 
666 1 0.607366 0.68998 0.108085 2.20442 -3.29929 -0.0603803 -0.155735 -0.733037 
665 1 0.543067 0.656475 0.102393 0.259859 -3.36257 -0.10387 0.0349714 0.109749 
265 1 0.542917 0.649717 -0.00234144 2.18198 -3.29125 0.54916 0.685808 0.789052 
269 1 0.659222 0.636867 0.000442908 0.665775 -3.29897 0.00952688 -0.357225 0.592454 
272 1 0.665357 0.679538 0.0561092 0.989796 -3.31147 0.234171 0.182765 0.204414 
270 1 0.715565 0.673951 0.00587822 3.94337 -3.20125 0.930723 -0.686899 -0.226005 
309 1 0.676448 0.721345 0.00565828 0.469637 -3.26055 -0.0529464 0.522149 -0.137569 
311 1 0.73917 0.710293 0.0520586 1.18598 -3.31519 -0.377801 0.493266 0.49775 
670 1 0.729338 0.670086 0.101932 0.31626 -3.29541 -0.384406 -0.224969 0.109514 
709 1 0.680897 0.719218 0.104965 1.17741 -3.33951 -0.116583 0.332405 -0.491113 
276 1 0.780609 0.660943 0.0506331 1.35717 -3.26801 0.765856 0.753006 -0.176553 
315 1 0.857837 0.693754 0.051202 1.16119 -3.36159 -0.57315 0.424848 0.0293253 
674 1 0.838059 0.654027 0.0998162 1.77316 -3.32274 0.502923 0.267277 0.435335 
713 1 0.791484 0.703219 0.104059 1.14629 -3.30429 0.814037 0.324905 -0.35004 
274 1 0.844296 0.656657 0.00159971 0.677411 -3.29869 0.154425 -0.0304491 0.108604 
313 1 0.786094 0.702939 -0.00138323 2.53588 -3.23061 0.98861 0.0742072 0.899606 
280 1 0.90482 0.647726 0.0474325 0.947559 -3.27983 -0.049635 -0.245116 0.481996 
319 1 0.968866 0.681646 0.0496131 0.718398 -3.3053 0.368716 -0.142902 0.497245 
678 1 0.961647 0.637664 0.102067 0.794586 -3.36813 0.0804264 0.186198 0.17248 
317 1 0.916205 0.689509 -0.000234101 0.788604 -3.25494 -0.409587 -0.669946 0.364924 
717 1 0.912052 0.686697 0.102422 0.458059 -3.3331 0.124233 -0.255978 -0.0917247 
318 1 0.986286 0.723653 0.00206324 2.14317 -3.32099 -0.639177 -0.222395 -0.332563 
288 1 0.0949877 0.756018 0.047294 0.963018 -3.34122 0.220795 -0.0961534 0.296709 
323 1 0.0498245 0.808726 0.0513002 0.891955 -3.25515 -0.186039 -0.473531 -0.771811 
721 1 0.0425168 0.758713 0.099219 1.09248 -3.27791 0.53435 0.363687 0.687754 
725 1 0.100378 0.798864 0.10203 0.850969 -3.27268 -0.192044 -0.542411 -0.116879 
282 1 0.040689 0.761942 -0.000834471 0.675023 -3.3081 0.397974 0.311741 -0.170504 
292 1 0.210829 0.742341 0.0545335 0.945256 -3.23592 -0.561438 -0.364873 -0.663555 
327 1 0.158771 0.790302 0.0531434 0.587821 -3.30786 -0.119372 0.206398 -0.523421 
686 1 0.151112 0.749721 0.101465 0.560838 -3.34946 -0.187494 -0.257561 -0.0546501 
690 1 0.215778 0.784584 0.0963344 1.63295 -3.18263 -0.394871 0.227126 1.22427 
295 1 0.320254 0.727488 0.0512548 0.64788 -3.31006 0.252273 -0.109416 0.422822 
296 1 0.274162 0.779542 0.054557 0.721372 -3.23166 0.0294745 -0.309593 -0.400537 
294 1 0.3283 0.769937 0.00123651 0.351543 -3.33905 -0.186642 0.135857 -0.364631 
300 1 0.336089 0.810943 0.0519767 0.55865 -3.32486 0.212444 0.643248 -0.237834 
694 1 0.274324 0.823606 0.102425 1.37759 -3.27109 0.948365 -0.0539633 0.0195342 
693 1 0.263308 0.738084 0.102328 0.867671 -3.24197 0.617881 -0.531306 0.0995061 
697 1 0.327432 0.773205 0.106815 1.58213 -3.28998 0.413129 0.00274475 -0.727182 
299 1 0.381402 0.761566 0.0508693 1.1563 -3.31024 0.7722 0.142813 0.171112 