ITEM: TIMESTEP
17500
ITEM: NUMBER OF ATOMS
4000
ITEM: BOX BOUNDS pp pp pp
3.4818132110753233e+00 3.7018186788924105e+01
-3.7573168613673213e+00 4.4257316861366355e+01
-4.4830286431070610e-01 4.0948302864311202e+01
ITEM: ATOMS id type xs ys zs c_csym c_peratom fx fy fz 
405 1 0.0378713 0.0710679 0.0990896 0.67522 -3.2767 0.19751 -0.0669964 0.201776 
7 1 0.0974324 0.0559519 0.0480945 1.66257 -3.28079 0.56304 0.713695 0.118356 
3 1 0.0326452 0.0277863 0.0505865 0.797374 -3.2905 -0.690298 -0.508843 -0.272345 
766 1 0.0845775 0.0233466 0.102268 1.60949 -3.25717 0.0191927 -0.378831 -0.217335 
2 1 0.0422576 0.0689622 1.00051 0.915885 -3.30282 -0.449666 -0.297467 -0.27734 
5 1 0.0822354 0.0129193 0.998882 2.26989 -3.22025 0.507245 1.20444 0.0954084 
11 1 0.210868 0.0427684 0.0551586 0.852547 -3.40068 -0.0428028 0.0511567 -0.303935 
409 1 0.151951 0.0534406 0.10158 0.978787 -3.32573 0.378229 -0.222103 -0.307848 
410 1 0.226526 0.0861318 0.100387 1.2763 -3.30966 -0.587348 -0.342475 0.063948 
372 1 0.142031 0.00855662 0.0532176 1.12117 -3.31323 0.399566 0.342585 -0.413961 
770 1 0.20125 0.996777 0.100635 1.34079 -3.28678 0.492085 0.78452 -0.312673 
10 1 0.220222 0.0857301 -0.00156627 0.672603 -3.28285 -0.0133311 -0.313104 0.64946 
16 1 0.281417 0.075295 0.0495334 0.576931 -3.32874 -0.401494 0.0239969 -0.0237076 
15 1 0.326055 0.0233255 0.051659 0.919464 -3.3026 0.203003 0.61851 -0.215384 
413 1 0.272044 0.0327484 0.103185 0.680855 -3.26257 0.0811985 -0.143038 -0.691393 
414 1 0.334354 0.0687803 0.0978157 0.548975 -3.317 0.483877 -0.0164497 0.239245 
13 1 0.26753 0.0349445 1.00168 0.302367 -3.33763 0.182201 0.241677 -0.135995 
14 1 0.334584 0.0688679 -0.00143553 0.429197 -3.35297 -0.0845836 -0.017083 -0.175568 
20 1 0.3932 0.0626234 0.0499213 0.301045 -3.3465 -0.375562 -0.0144548 0.183323 
19 1 0.438918 0.0137516 0.0542174 0.830663 -3.28751 0.097836 0.00166943 -0.794585 
418 1 0.446346 0.0544118 0.10068 0.523853 -3.3253 -0.00362136 0.362798 0.33741 
421 1 0.496936 0.00437728 0.100475 0.336359 -3.29721 0.702894 0.345718 0.0238167 
417 1 0.38183 0.0180313 0.100266 0.454644 -3.28114 -0.033898 0.332346 0.373279 
21 1 0.492562 0.00425307 1.00155 1.048 -3.30662 0.151194 0.679435 -0.315541 
17 1 0.382207 0.0214951 0.000248926 0.306586 -3.30242 0.0891049 -0.135388 0.340948 
18 1 0.449842 0.0559259 1.00155 0.641676 -3.32293 -0.0564796 -0.115367 -0.0414562 
24 1 0.504453 0.0516732 0.0534851 0.827766 -3.30508 -0.265008 -0.447205 -0.584768 
28 1 0.623019 0.036869 0.0461047 1.40493 -3.23117 -0.335558 0.0349107 0.672547 
422 1 0.561547 0.0408923 0.0979853 0.50442 -3.31146 -0.184883 -0.212783 0.117804 
465 1 0.621498 0.0765216 0.100725 1.41732 -3.20439 0.856527 0.352105 -0.576151 
63 1 0.570351 0.0876098 0.0502235 0.726468 -3.32058 0.0396851 -0.130342 0.0150688 
22 1 0.561618 0.0460675 1.00552 1.84985 -3.30099 -0.560906 -0.16625 -0.591073 
32 1 0.736834 0.0212677 0.0488255 0.956005 -3.29771 -0.342334 0.243133 0.2667 
67 1 0.678164 0.076079 0.050703 2.01133 -3.32303 0.557974 -0.115794 0.0535431 
469 1 0.744425 0.0642005 0.0983836 0.916221 -3.30157 -0.680657 0.00535196 -0.238717 
426 1 0.675553 0.0314667 0.0968557 0.78969 -3.31847 0.166401 -0.192755 -0.00460241 
26 1 0.678895 0.0296914 0.996207 1.25562 -3.2822 -0.179791 -0.0445585 0.191519 
65 1 0.626723 0.0790349 0.999614 0.478623 -3.30586 0.281636 0.00887238 -0.278032 
36 1 0.802647 0.0565485 0.0503994 1.09927 -3.25801 -0.641033 -0.184044 -0.369887 
434 1 0.856534 0.0504817 0.0985126 0.369975 -3.27523 -0.0656666 -0.307618 -0.0021962 
430 1 0.790947 0.0160135 0.100489 0.464463 -3.32692 0.299621 -0.306516 0.0133636 
33 1 0.784564 0.0141142 -0.000439211 1.00557 -3.29317 0.191891 -0.310214 -0.443859 
75 1 0.860512 0.0935037 0.0461103 0.513614 -3.30969 0.313846 -0.275078 -0.0303856 
34 1 0.851248 0.0455304 -0.00146683 1.28884 -3.36101 0.598939 0.448373 -0.239335 
4 1 0.980732 0.0782052 0.0508993 0.965916 -3.33095 -0.249088 0.147157 -0.487532 
40 1 0.916689 0.039044 0.0426401 2.05534 -3.28988 -0.463354 0.824596 0.110237 
401 1 0.975532 0.039032 0.0964561 1.51546 -3.26046 -0.625157 -0.607045 0.444522 
438 1 0.917089 0.0859855 0.0964614 1.05769 -3.33642 0.582492 -0.00167629 -0.219681 
77 1 0.923335 0.0832134 -0.00411353 0.602707 -3.41156 -0.296621 -0.111003 0.18492 
8 1 0.0519077 0.106966 0.0459427 1.80444 -3.25919 -0.495916 0.283388 0.687068 
47 1 0.113648 0.142728 0.0483024 0.521442 -3.24768 0.151425 -0.151049 0.714786 
406 1 0.102545 0.102673 0.0980813 0.846686 -3.32404 0.242481 -0.150331 0.182238 
445 1 0.0565895 0.150724 0.0985599 0.432593 -3.28675 -0.216275 -0.448221 0.153109 
45 1 0.0573752 0.149738 1.00171 0.667455 -3.33495 -0.231622 0.289812 -0.495666 
6 1 0.107769 0.101292 1.0001 0.370324 -3.30413 -0.0598114 -0.0639644 -0.442733 
12 1 0.164265 0.0945795 0.0514756 0.505047 -3.35419 -0.382655 -0.426192 -0.0863733 
52 1 0.180953 0.173848 0.050644 0.851235 -3.30654 0.116798 0.0631591 0.411614 
51 1 0.227489 0.125508 0.0523906 0.667471 -3.29072 0.410844 0.309215 -0.256834 
449 1 0.170073 0.133301 0.104759 1.01319 -3.34698 0.300306 0.356266 -0.371095 
450 1 0.240627 0.166364 0.102954 1.29111 -3.31555 -0.376409 0.261412 0.0488368 
49 1 0.169524 0.136686 0.998441 0.742509 -3.23548 0.141631 -0.223093 0.430324 
55 1 0.345725 0.112553 0.0442071 2.27893 -3.25143 -0.329046 -0.0604807 1.2701 
56 1 0.289283 0.162865 0.0514974 0.972683 -3.37062 0.44418 0.131814 -0.301267 
453 1 0.291311 0.11878 0.0989792 0.946486 -3.25054 -0.32637 0.196868 -0.481628 
454 1 0.349946 0.158732 0.101652 1.07481 -3.31493 -0.276188 -0.282281 -0.357592 
54 1 0.35273 0.15583 0.00454671 1.44242 -3.24429 -0.959631 -0.147653 -0.549724 
53 1 0.284499 0.117643 0.00232112 0.859286 -3.30575 0.172724 0.616999 -0.234485 
59 1 0.454558 0.101108 0.0519202 0.481795 -3.31549 -0.223586 -0.0888465 0.0703463 
60 1 0.408692 0.151274 0.0517813 0.676349 -3.30064 -0.388689 -0.602091 0.06597 
458 1 0.464909 0.140892 0.102878 0.359633 -3.34125 -0.187373 0.097617 -0.163683 
457 1 0.396267 0.107561 0.103846 1.23142 -3.33654 0.407368 -0.206165 -0.73295 
99 1 0.468947 0.184907 0.0517383 0.371807 -3.30752 0.59772 0.27131 -0.372572 
61 1 0.507383 0.0941837 0.999461 1.51272 -3.28081 0.588161 -0.373539 0.349291 
461 1 0.511846 0.0919399 0.0973183 0.721284 -3.31336 0.202063 0.221116 0.718811 
64 1 0.521277 0.13414 0.0501307 0.355989 -3.35733 0.135901 0.306007 0.0416952 
103 1 0.584253 0.173162 0.0511003 0.582295 -3.30441 -0.0635229 -0.218684 -0.419841 
462 1 0.579694 0.129717 0.102345 0.989878 -3.31815 -0.419919 -0.0403264 -0.382202 
501 1 0.526984 0.177012 0.0990663 0.450864 -3.306 -0.19166 0.0969412 0.201165 
62 1 0.577409 0.125433 0.997215 0.816664 -3.32697 0.232643 0.582519 0.536682 
101 1 0.52989 0.176257 0.000248367 0.303778 -3.34665 -0.0320167 0.187813 0.271563 
68 1 0.631945 0.124475 0.0501387 0.550969 -3.32001 -0.0498003 -0.16662 -0.0861208 
72 1 0.696076 0.158011 0.049655 0.585375 -3.28082 0.0689325 -0.00216336 0.342548 
71 1 0.746233 0.10588 0.0490858 0.656703 -3.31516 -0.062094 0.0284972 0.054536 
505 1 0.638801 0.169346 0.099874 1.37068 -3.35197 0.480448 -0.220198 0.140306 
466 1 0.685488 0.116558 0.10307 1.63977 -3.33252 0.474526 -0.118546 -0.602242 
69 1 0.692122 0.113098 0.995812 0.75573 -3.32795 0.0980943 0.10076 0.186738 
66 1 0.644304 0.162581 0.998832 0.442268 -3.30041 -0.47857 -0.402743 -0.110932 
473 1 0.806307 0.0987289 0.0974141 0.554979 -3.29446 0.0867614 0.259572 0.272018 
76 1 0.807572 0.14313 0.0548633 2.92889 -3.21891 0.697624 0.127918 -1.11545 
470 1 0.752619 0.147979 0.0959358 1.82953 -3.26266 -0.169172 0.408391 1.04115 
477 1 0.871934 0.137223 0.0931392 1.83186 -3.30494 0.184903 -0.303006 0.526403 
80 1 0.88202 0.174325 0.0430998 1.84159 -3.22454 -0.492283 -0.13672 0.940202 
474 1 0.825122 0.184017 0.101007 0.847344 -3.35378 -0.344716 0.0407562 -0.324687 
74 1 0.863506 0.131823 0.996953 1.74741 -3.22993 1.00858 0.0964388 0.552046 
70 1 0.752205 0.153449 0.00413032 2.71347 -3.28431 0.148179 -0.667026 -0.443769 
113 1 0.820334 0.18174 0.0012856 0.643632 -3.35336 0.0250439 0.3833 -0.217018 
43 1 0.997442 0.155626 0.0524449 1.47657 -3.32813 0.0927487 0.477664 -0.369354 
79 1 0.92543 0.126186 0.043225 1.71359 -3.28938 0.357906 -0.230162 0.469621 
402 1 0.988543 0.118263 0.100771 0.493026 -3.29068 -0.0699749 -0.226584 -0.276082 
441 1 0.94184 0.167867 0.0994568 0.5705 -3.30478 -0.357346 -0.126568 -0.208833 
78 1 0.940353 0.16824 -0.000309706 0.835896 -3.29168 0.113151 -0.249177 -0.457738 
446 1 0.118044 0.1837 0.100646 0.820707 -3.30433 0.820183 0.318223 -0.160579 
48 1 0.0620967 0.193784 0.0508976 0.513224 -3.3422 -0.085209 -0.0281894 -0.101606 
83 1 0.0121892 0.242808 0.0543853 1.07576 -3.32683 0.517268 0.106654 -0.735046 
485 1 0.0741867 0.23671 0.10303 0.625974 -3.34371 -0.341348 -0.203006 0.00876403 
87 1 0.129964 0.227297 0.0521754 0.396738 -3.31846 0.329003 -0.204225 0.228814 
486 1 0.140236 0.269897 0.103937 0.574811 -3.34082 0.126224 0.139387 -0.139744 
91 1 0.239435 0.211322 0.050982 0.710504 -3.31796 0.887667 0.377079 0.0690076 
92 1 0.194524 0.265093 0.0521813 0.658167 -3.31302 0.0165098 -0.235871 0.188609 
489 1 0.187464 0.216466 0.0999164 1.20778 -3.33658 -0.14892 0.428951 0.195318 
89 1 0.187557 0.218991 0.00113918 0.625308 -3.25251 -0.756794 0.0615628 0.200381 
490 1 0.251195 0.255455 0.102019 0.273485 -3.36579 -0.159766 0.0616785 -0.0295418 
90 1 0.244887 0.255184 0.0011643 0.849378 -3.33147 0.78856 0.355532 -0.0297047 
95 1 0.356928 0.200662 0.0482819 0.735663 -3.28992 -0.347786 -0.206858 0.328199 
96 1 0.308565 0.251911 0.0515062 0.768465 -3.36473 -0.461311 -0.627487 -0.359037 
493 1 0.301799 0.207393 0.103551 0.66607 -3.31031 -0.353026 -0.394318 -0.363469 
494 1 0.365419 0.238145 0.101095 0.99188 -3.27598 0.123517 0.446 0.061182 
100 1 0.419976 0.233713 0.0516906 0.581868 -3.30119 0.346525 0.234232 -0.299339 
139 1 0.481682 0.273017 0.0487465 0.59955 -3.30049 0.0638609 -0.474496 0.1839 
497 1 0.415311 0.190273 0.100451 0.317513 -3.32337 0.210476 0.25009 0.418518 
498 1 0.480159 0.22881 0.0997617 0.501186 -3.30155 -0.418738 -0.267138 0.0111011 
537 1 0.427161 0.277309 0.0990394 0.339511 -3.30294 0.0901594 -0.0118469 -0.110059 
104 1 0.534455 0.221007 0.0508061 0.45407 -3.33762 -0.18133 0.295375 -0.688427 
108 1 0.599638 0.259854 0.0443626 1.4123 -3.32521 -0.477166 -0.78999 0.204572 
502 1 0.587902 0.21565 0.0981034 0.584659 -3.30943 0.34722 0.26272 0.105944 
541 1 0.537657 0.266264 0.101129 0.847808 -3.29697 0.315791 -0.0958692 -0.312142 
102 1 0.538037 0.261621 0.995247 0.980144 -3.35566 0.145681 0.140908 0.497853 
107 1 0.649886 0.206274 0.0445959 1.1313 -3.26017 -0.279696 0.1341 0.775353 
509 1 0.711028 0.203718 0.104783 3.00078 -3.29951 -0.640325 -0.701114 -0.56291 
112 1 0.711844 0.241806 0.0516792 0.988943 -3.30639 0.453161 0.152355 -0.522999 
506 1 0.654629 0.249027 0.0949596 0.873453 -3.31901 -0.249407 -0.139635 0.415125 
109 1 0.703424 0.199748 0.997233 0.5032 -3.23388 0.747462 0.0235177 0.0900639 
106 1 0.658617 0.246504 -0.00221019 0.757506 -3.31078 -0.237662 0.526976 -0.161551 
115 1 0.831766 0.227771 0.048227 0.952317 -3.31116 -0.600359 -0.681371 0.404417 
111 1 0.760283 0.196084 0.0504145 1.36782 -3.36308 0.398567 -0.171599 0.233096 
517 1 0.836181 0.269816 0.0982565 0.75958 -3.33494 0.248457 -0.00821419 0.41377 
513 1 0.774047 0.235476 0.105764 2.19236 -3.22286 -0.0656538 -0.0945419 -0.979563 
116 1 0.781166 0.274955 0.0449282 1.48668 -3.29307 -0.550092 -0.166241 0.408978 
114 1 0.844007 0.264181 -0.00195635 1.99046 -3.21252 -0.617085 0.0809113 0.280412 
442 1 1.00922 0.200472 0.100729 0.470984 -3.28965 -0.108194 0.132566 0.0505533 
44 1 0.950121 0.206449 0.049066 0.51543 -3.31575 0.281589 0.256769 -0.106308 
119 1 0.896463 0.258154 0.0496366 0.48344 -3.30283 0.587968 0.361477 0.168392 
478 1 0.892539 0.215516 0.0954814 0.836146 -3.3324 -0.343275 0.0925836 0.333422 
481 1 0.957223 0.249943 0.0984178 0.449291 -3.26104 -0.274783 -0.0320843 0.319499 
42 1 1.01061 0.201342 0.997055 1.22922 -3.34362 -0.323594 -0.177263 0.370832 
81 1 0.956175 0.252071 0.000596023 0.387948 -3.36611 -0.325063 -0.343611 -0.0240964 
88 1 0.0829021 0.273909 0.0518669 0.950515 -3.25184 -0.556466 -0.00637737 0.124512 
123 1 0.0368489 0.321274 0.0527442 3.44779 -3.29138 -0.353663 0.812861 -0.528166 
482 1 0.0217267 0.285833 0.10122 0.652434 -3.28829 0.482267 -0.353704 0.424195 
525 1 0.0879119 0.320707 0.101666 0.778186 -3.25882 -0.261204 -0.16017 0.875454 
82 1 0.0212194 0.282708 0.00139666 0.500636 -3.36109 0.226545 0.154594 0.118936 
127 1 0.138596 0.312736 0.0550579 1.85275 -3.27761 0.900458 0.299246 -0.509774 
132 1 0.209637 0.34645 0.0519073 1.10953 -3.36519 -0.335168 0.568164 -0.110768 
526 1 0.14748 0.356303 0.100392 0.911696 -3.31602 0.610762 0.118897 0.104761 
529 1 0.207391 0.30598 0.0995902 1.53258 -3.31954 -0.57363 -0.210756 0.372959 
131 1 0.261323 0.301071 0.0491481 0.567798 -3.25548 -0.271909 -0.337862 0.183646 
136 1 0.323823 0.335241 0.0515167 0.377315 -3.26959 -0.359366 -0.0385501 0.100793 
533 1 0.313633 0.29255 0.100969 0.362299 -3.30862 -0.16213 -0.178871 -0.0813572 
135 1 0.372701 0.283351 0.0492491 0.770057 -3.28151 -0.185637 0.313928 0.27066 
530 1 0.267531 0.34308 0.101488 0.315359 -3.30227 -0.0155428 0.119357 -0.138019 
134 1 0.375964 0.329606 0.00303301 0.499791 -3.30055 -0.0695844 -0.168374 -0.487991 
534 1 0.375844 0.328311 0.101791 0.30938 -3.2893 0.406033 0.197629 -0.460031 
140 1 0.431453 0.324079 0.050037 0.582394 -3.31213 0.193415 -0.0950055 0.206383 
538 1 0.485133 0.316108 0.100079 0.712694 -3.34832 0.540315 0.176036 -0.0864085 
577 1 0.44228 0.365142 0.10134 0.41183 -3.37162 -0.0979351 0.127907 -0.157173 
144 1 0.498601 0.359051 0.0475247 0.71489 -3.35065 0.0890463 -0.268567 0.529264 
138 1 0.439718 0.364055 0.998623 0.434093 -3.32171 0.0743099 -0.221938 0.170496 
143 1 0.545706 0.304932 0.0485334 0.541839 -3.2794 0.398516 0.388589 0.0663459 
545 1 0.603863 0.299375 0.0941747 0.973524 -3.28911 -0.15433 0.0390873 0.76535 
148 1 0.611137 0.341279 0.0453564 1.07934 -3.32417 -0.111333 0.0116718 0.383552 
542 1 0.555798 0.349796 0.0987536 0.305004 -3.37055 -0.519651 -0.266932 -0.0935474 
142 1 0.553116 0.347665 -0.0024383 0.740368 -3.26334 0.91693 0.435414 0.153549 
147 1 0.662017 0.293818 0.0507322 1.06963 -3.24148 0.127545 -0.0754272 -0.450188 
151 1 0.725637 0.325396 0.0501609 0.401096 -3.29176 0.274224 0.0291868 0.0711098 
549 1 0.668729 0.334712 0.103757 1.34694 -3.27047 -0.0541244 -0.108108 -0.851951 
510 1 0.720986 0.282891 0.0970348 0.966078 -3.32134 0.207153 0.226315 0.0475494 
149 1 0.718418 0.284011 -0.000900305 0.536607 -3.35008 -0.059789 -0.11649 -0.0577105 
146 1 0.669763 0.332593 0.994994 0.949002 -3.30811 0.188601 0.133803 0.276942 
120 1 0.842326 0.307595 0.0493389 0.699173 -3.30964 0.584914 0.533346 -0.150815 
155 1 0.791335 0.35996 0.0494074 0.304418 -3.26147 0.0152671 -0.282653 0.368009 
514 1 0.784598 0.320579 0.0988236 0.70468 -3.35076 0.158038 -0.393236 0.146594 
557 1 0.855553 0.349285 0.0986601 0.583898 -3.33449 -0.125691 0.0032775 0.236157 
153 1 0.781381 0.319174 -1.83226e-06 1.31077 -3.32984 0.418825 -0.168657 -0.344521 
84 1 0.963971 0.296262 0.0545636 1.80925 -3.27382 -0.0713816 -0.59919 -0.802397 
159 1 0.911367 0.341775 0.0491367 0.226118 -3.35341 -0.133063 0.0353077 0.144283 
518 1 0.909463 0.298459 0.101468 1.38792 -3.29481 -0.857613 0.246743 0.00830657 
521 1 0.972732 0.33405 0.101494 0.390359 -3.232 -0.000535161 0.253958 0.185406 
118 1 0.903964 0.301035 0.00221531 0.532799 -3.30745 -0.192489 -0.0604642 0.0998406 
128 1 0.0946208 0.365832 0.0501798 1.03599 -3.28205 -0.839543 -0.486328 0.149647 
522 1 0.0329528 0.369376 0.102046 0.640715 -3.37482 0.483913 0.447706 -0.0236481 
163 1 0.0398472 0.412413 0.0485298 0.603315 -3.33697 0.0302435 -0.163955 0.298786 
168 1 0.105967 0.448368 0.0500788 0.414199 -3.29474 -0.434902 0.056973 0.186807 
565 1 0.101008 0.407294 0.102779 0.883452 -3.33547 -0.4869 -0.347947 -0.0796263 
167 1 0.153269 0.400645 0.0500427 0.699112 -3.30512 0.668638 0.0609011 0.136888 
172 1 0.216404 0.439123 0.0550267 1.58503 -3.24858 0.0722576 -0.62196 -0.709067 
569 1 0.217955 0.392227 0.0999356 1.03307 -3.26656 -0.741159 -0.283298 0.161886 
566 1 0.167474 0.439795 0.104344 1.21867 -3.27133 -0.214846 0.335898 0.0075446 
171 1 0.271018 0.387989 0.0550914 0.590976 -3.30256 0.104309 -0.317591 -0.599866 
176 1 0.338989 0.42118 0.0523108 1.11736 -3.27148 -0.727038 0.256939 -0.128951 
573 1 0.328793 0.381137 0.10095 0.412152 -3.28963 -0.711283 -0.361227 0.453587 
570 1 0.273877 0.431407 0.101738 0.834061 -3.31453 0.651244 -0.102096 0.123174 
173 1 0.324459 0.379686 1.00387 0.610828 -3.22969 0.0287006 0.289611 0.0301306 
175 1 0.382293 0.371431 0.0527447 0.335156 -3.27085 0.553255 0.0586937 -0.00819342 
179 1 0.448489 0.405866 0.0505172 0.396196 -3.29432 -0.461583 -0.216111 0.401881 
578 1 0.454494 0.451533 0.106412 1.54733 -3.31467 0.0218532 -0.316674 -0.939163 
574 1 0.387545 0.41527 0.101072 0.646461 -3.28459 0.983189 0.304166 0.242571 
180 1 0.398429 0.458414 0.0485945 1.10666 -3.33388 0.442356 -0.34341 0.426302 
178 1 0.450775 0.443451 0.998635 1.21907 -3.28258 0.490849 0.558824 -0.121377 
177 1 0.390735 0.409928 1.00358 1.08454 -3.24033 -0.272558 0.265764 -0.356779 
183 1 0.560106 0.398 0.0518635 3.1988 -3.32871 0.276429 -0.52737 0.00896409 
184 1 0.505097 0.441013 0.0479667 1.75644 -3.26478 0.560236 0.71772 0.424037 
581 1 0.506413 0.401981 0.10221 0.5098 -3.30711 -0.4675 -0.391203 -0.0858204 
585 1 0.568148 0.436575 0.103427 1.47678 -3.31489 0.512797 -0.0544837 -0.109254 
546 1 0.618474 0.382842 0.102407 0.563098 -3.26482 -0.0486395 -0.00858919 -0.412013 
181 1 0.505795 0.397343 0.998025 0.575095 -3.27198 -0.218864 -0.198808 0.0580167 
182 1 0.566459 0.431708 0.998984 1.03035 -3.27768 0.932306 0.383178 0.325164 
187 1 0.635628 0.421791 0.0525626 2.82132 -3.30118 -0.568293 0.167185 -0.406253 
553 1 0.739785 0.368135 0.102671 0.669455 -3.3145 -0.262731 -0.0559582 -0.199179 
152 1 0.679451 0.37222 0.0520156 0.662 -3.33024 -0.153825 0.0713436 -0.0839952 
550 1 0.684151 0.413426 0.103262 1.45043 -3.2671 0.762762 0.61681 -0.294869 
156 1 0.741805 0.409579 0.0515192 0.471241 -3.36638 0.130772 0.103595 0.0995162 
593 1 0.753539 0.450837 0.102167 0.368831 -3.36781 -0.0917704 -0.136273 -0.168996 
150 1 0.73483 0.367288 0.00228958 0.755431 -3.31151 -0.139838 -0.0177207 -0.633932 
189 1 0.686032 0.415228 0.99968 0.578458 -3.30187 -0.194868 0.280366 0.105053 
160 1 0.859211 0.38823 0.0492342 0.91189 -3.28339 0.436694 0.702411 0.39958 
195 1 0.810274 0.445305 0.0502966 1.20366 -3.35945 -0.128956 -0.322181 0.103301 
197 1 0.865994 0.432287 0.00135567 0.769096 -3.27958 0.00779511 0.109914 0.0353164 
554 1 0.803084 0.401226 0.100265 0.34481 -3.34175 0.339203 0.200042 -0.0482228 
597 1 0.8752 0.431124 0.101227 1.92899 -3.31219 -0.576081 0.128808 -0.0616859 
154 1 0.802863 0.39736 1.00125 1.15806 -3.25442 -0.402846 0.638622 -0.388059 
124 1 0.979972 0.372614 0.0489231 1.39537 -3.34565 -0.0485693 0.130536 0.144779 
199 1 0.929348 0.42292 0.052784 1.26615 -3.26315 -0.564129 -0.303245 -0.559979 
561 1 0.979788 0.424631 0.103026 2.39162 -3.20608 -0.00551542 -0.818574 0.479358 
558 1 0.923917 0.382582 0.101815 0.862516 -3.29697 -0.146242 0.00964308 -0.162112 
203 1 0.0500468 0.500014 0.0510381 0.455218 -3.33356 0.29333 -0.29749 -0.214945 
605 1 0.112972 0.490098 0.100448 0.402244 -3.38337 -0.186088 0.255779 0.0198529 
602 1 0.0621375 0.541336 0.100909 0.339936 -3.25768 -0.359988 -0.384075 0.127843 
208 1 0.11545 0.534929 0.0520717 0.566139 -3.23445 0.0912092 -0.800218 -0.495234 
562 1 0.0449136 0.453109 0.0956545 2.37298 -3.26413 0.782528 0.555677 0.558018 
205 1 0.107547 0.490393 -0.000951652 0.392228 -3.33101 -0.019785 0.347461 0.426468 
207 1 0.168326 0.483941 0.0509411 0.311151 -3.34275 -0.115082 0.468121 0.035685 
212 1 0.233495 0.521998 0.0475914 1.11568 -3.25711 -0.762314 -0.276411 0.734427 
609 1 0.228173 0.478932 0.101521 0.410673 -3.30544 -0.396168 0.343774 0.0376397 
606 1 0.177757 0.527322 0.100973 0.589088 -3.38065 -0.103613 -0.265008 -0.138794 
206 1 0.172081 0.528134 0.00334315 0.730558 -3.30096 -0.429331 -0.256767 0.0341335 
211 1 0.283623 0.47065 0.0494993 0.79647 -3.21975 -0.176862 -0.0173093 0.896045 
215 1 0.345821 0.502402 0.0525653 1.13358 -3.20759 0.403637 0.707931 0.0442887 
613 1 0.340308 0.465674 0.102797 0.540607 -3.32585 -0.476967 -0.421625 0.113203 
610 1 0.286765 0.518299 0.100596 1.37378 -3.31789 -0.00367398 -0.536044 -0.0313576 
174 1 0.341256 0.464598 0.00156851 0.772861 -3.26887 -0.12719 -0.351942 -0.0660397 
614 1 0.35431 0.548344 0.100803 0.279531 -3.25715 -0.775187 -0.0227691 0.231781 
219 1 0.46091 0.494944 0.0514137 1.7967 -3.32422 -0.334004 -0.414828 0.00316306 
621 1 0.464508 0.534841 0.103862 0.883061 -3.24508 0.404203 -0.648539 -0.122486 
220 1 0.405318 0.540318 0.0534309 2.02854 -3.23865 0.712953 -0.224626 -0.798526 
617 1 0.402431 0.498224 0.100417 0.491591 -3.28526 0.408611 0.168021 0.29947 
188 1 0.576471 0.470969 0.0499642 1.2538 -3.35334 0.113664 -0.0202595 -0.119668 
582 1 0.518609 0.484366 0.101054 0.42156 -3.32573 0.00591454 0.0658144 0.183038 
223 1 0.529744 0.519149 0.0494565 2.04727 -3.2705 0.282136 0.70811 0.164918 
586 1 0.586905 0.516252 0.101743 0.488463 -3.34981 -0.161083 -0.152848 0.117135 
221 1 0.516115 0.482314 0.998621 0.959989 -3.30957 -0.106911 -0.222296 0.138036 
191 1 0.696727 0.460311 0.0487544 0.869082 -3.23895 -0.0290204 -0.483606 -0.0386644 
192 1 0.640769 0.51 0.0492922 0.524766 -3.31191 0.112827 -0.16483 0.0237373 
231 1 0.710097 0.546315 0.0508938 1.28394 -3.32381 -0.3461 -0.22381 -0.0723414 
589 1 0.640476 0.466121 0.09378 3.05397 -3.2401 -0.886815 -0.203625 0.777772 
590 1 0.701511 0.498734 0.0983029 0.539251 -3.31022 0.513908 0.700253 0.272586 
190 1 0.698825 0.499282 0.997941 1.06745 -3.2342 0.650187 0.974304 0.350695 
196 1 0.757309 0.495246 0.046719 1.27086 -3.30232 0.450908 -0.0974469 0.490882 
194 1 0.813039 0.484553 -0.00235602 1.54546 -3.28509 0.888304 0.0755068 0.331718 
235 1 0.829048 0.524638 0.0472412 1.51551 -3.29473 -0.403957 -0.508059 0.498191 
200 1 0.879914 0.474982 0.0506919 0.960165 -3.35077 -0.113463 -0.168812 0.0395869 
594 1 0.822238 0.481954 0.104013 1.48691 -3.32546 -0.075875 0.257869 -0.378444 
633 1 0.768536 0.535183 0.099469 0.518538 -3.33804 -0.121073 -0.461413 -0.199379 
637 1 0.88536 0.51707 0.102114 1.40981 -3.28591 -0.701657 0.355198 0.138285 
164 1 0.985502 0.459994 0.053351 1.42503 -3.25922 0.0818618 0.904556 -0.670424 
239 1 0.93789 0.514112 0.052825 0.857065 -3.26279 -0.0208492 -0.322309 -0.0922796 
601 1 0.997865 0.505142 0.100405 0.60142 -3.32686 -0.0650697 -0.108718 0.244235 
598 1 0.931499 0.470486 0.109253 2.34665 -3.24172 0.187011 0.140277 -0.611734 
237 1 0.886028 0.517119 0.000351798 1.35832 -3.31672 -0.38897 -0.212562 -0.019309 
243 1 0.068577 0.58041 0.0525136 1.2448 -3.33375 -0.357787 0.693278 -0.391684 
642 1 0.0743752 0.626245 0.10323 0.856127 -3.24876 -0.683548 0.0781289 -0.480172 
245 1 0.124063 0.576402 0.996694 1.73874 -3.31488 -0.346389 0.192163 0.35344 
641 1 0.00475796 0.592448 0.101673 0.954433 -3.3162 0.774826 -0.184574 -0.221314 
244 1 0.017423 0.634559 0.0550373 0.726473 -3.35643 -0.117383 -0.105491 -0.236662 
241 1 0.0073196 0.593029 1.00136 0.448526 -3.36604 -0.182757 -0.325237 0.451142 
645 1 0.125313 0.573844 0.0992805 1.31724 -3.18657 -0.0942865 0.622064 0.495256 
204 1 -0.000142935 0.548874 0.0539925 0.390267 -3.32345 0.236986 0.334478 -0.353902 
242 1 0.0725028 0.626026 1.00378 0.562383 -3.33604 0.123876 -0.0601067 -0.0230371 
248 1 0.127922 0.621413 0.0544443 0.713424 -3.31126 0.233982 0.0186034 -0.330693 
247 1 0.173417 0.572172 0.0503046 1.48963 -3.29411 1.08355 0.230458 -0.3218 
649 1 0.237627 0.565116 0.10363 0.621582 -3.33542 -0.0846164 0.233096 -0.518244 
251 1 0.242313 0.606445 0.0516924 0.475066 -3.37328 -0.171271 -0.0884103 -0.174343 
646 1 0.186263 0.61438 0.103581 0.365801 -3.30774 0.445685 0.010017 -0.527738 
249 1 0.181062 0.619175 -0.000333669 3.60753 -3.2943 0.75633 -0.776626 0.54278 
216 1 0.293179 0.557224 0.0485824 0.965734 -3.30866 0.562525 0.293005 0.40979 
255 1 0.360607 0.589248 0.0509391 0.525865 -3.32494 -0.23836 0.122849 -0.180229 
653 1 0.302494 0.601997 0.10134 0.813051 -3.31626 -0.253698 -0.666986 -0.0828637 
256 1 0.309085 0.639478 0.0521788 0.833675 -3.3062 0.169428 0.284792 -0.5351 
657 1 0.369634 0.631277 0.0987245 0.467163 -3.30449 0.452375 0.442816 0.0471351 
259 1 0.425035 0.625701 0.0496188 0.329531 -3.31333 0.240233 -0.0355192 0.221023 
224 1 0.478839 0.569031 0.0526827 1.74998 -3.34043 0.062042 0.37787 -0.387369 
618 1 0.418246 0.578951 0.0980585 1.45047 -3.21686 0.248667 1.32815 0.320709 
622 1 0.483414 0.616248 0.101422 0.310534 -3.38076 0.012992 0.087586 -0.196575 
227 1 0.592892 0.557791 0.0532023 0.550825 -3.28112 -0.407058 -0.0480638 0.0633469 
228 1 0.544084 0.604588 0.0521491 1.33239 -3.32651 -0.340117 0.315126 0.00772222 
625 1 0.532071 0.5658 0.105099 0.836503 -3.30421 0.55155 0.452495 -0.453882 
626 1 0.602094 0.604982 0.101331 1.28152 -3.30544 -0.411082 -0.567456 -0.00925823 
629 1 0.651408 0.549252 0.0993152 0.457928 -3.30026 0.0646786 0.156166 0.440459 
232 1 0.654503 0.593954 0.0489577 0.66202 -3.3289 0.405684 0.179844 0.162795 
271 1 0.723804 0.623594 0.0435167 2.99754 -3.30755 -0.214548 0.14622 0.69218 
630 1 0.715859 0.583113 0.103481 1.3999 -3.32174 0.146743 0.452323 -0.41202 
669 1 0.668323 0.636916 0.100826 0.697032 -3.296 -0.298133 -0.289467 -0.142988 
236 1 0.779621 0.575821 0.0473408 2.13201 -3.19247 -1.02949 0.13921 0.787598 
275 1 0.835589 0.613746 0.052109 0.326664 -3.28898 -0.166071 0.487359 0.390571 
634 1 0.832523 0.568086 0.098671 0.793051 -3.23132 -0.309387 -0.0531532 0.486841 
673 1 0.773543 0.623909 0.0988848 2.28304 -3.33021 0.462021 -0.66431 0.135348 
273 1 0.781044 0.623758 -0.000477505 1.13019 -3.23106 -0.314095 -0.937955 -0.0995259 
240 1 0.88343 0.564494 0.0524462 0.616755 -3.18177 0.502264 -0.0687391 -0.0141071 
279 1 0.949056 0.599772 0.0544589 0.175201 -3.33857 0.0492156 0.169086 -0.295633 
638 1 0.940399 0.555972 0.102474 0.761673 -3.29981 0.229749 0.149705 -0.0493784 
677 1 0.890795 0.605682 0.103277 0.466078 -3.30234 0.534774 0.224476 -0.473729 
238 1 0.937381 0.560323 0.00608127 2.53412 -3.29442 0.724411 -0.147151 -0.386504 
277 1 0.888722 0.610274 1.00575 1.5518 -3.30874 0.196875 -0.313508 -0.668442 
283 1 0.0810877 0.672098 0.0529925 0.364093 -3.30662 -0.37262 -0.0716896 -0.263314 
284 1 0.0287229 0.718586 0.0519224 0.694765 -3.32173 0.0581741 0.566041 -0.467271 
681 1 0.0223343 0.681873 0.100647 0.85004 -3.31722 0.188953 -0.712752 0.22314 
682 1 0.0870123 0.718651 0.101439 1.0812 -3.3195 0.216127 -0.368344 -0.320161 
285 1 0.0903052 0.712516 1.00532 0.665512 -3.32799 -0.0695054 0.0580126 -0.461052 
281 1 0.024438 0.675368 1.00045 0.657649 -3.33772 -0.355076 0.355098 0.359458 
685 1 0.13156 0.664969 0.100074 1.53096 -3.29453 0.84052 0.28644 0.253298 
252 1 0.196528 0.659407 0.0549628 1.0989 -3.34041 -0.412663 -0.333724 -0.587897 
287 1 0.147914 0.70931 0.0537261 0.501984 -3.32131 -0.103508 -0.322952 0.0371209 
689 1 0.203279 0.699391 0.10464 0.787899 -3.3634 0.181248 0.234934 -0.269075 
246 1 0.13511 0.663544 1.00279 0.251045 -3.30588 0.131037 0.404236 0.00768707 
650 1 0.250761 0.651425 0.101891 0.682845 -3.31471 0.289607 -0.287776 0.120084 
291 1 0.26144 0.692392 0.0471259 0.949904 -3.32325 0.212708 -0.171792 0.157155 
260 1 0.375574 0.677362 0.0489176 0.598709 -3.33709 -0.0605489 -0.342704 0.179661 
654 1 0.316864 0.684069 0.0960534 1.01868 -3.34064 0.343852 0.115109 0.261133 
295 1 0.325466 0.730006 0.0515681 1.10735 -3.27799 -0.199899 -0.65195 0.0962965 
693 1 0.267707 0.737127 0.104523 0.97174 -3.3332 0.167697 -0.313395 -0.170073 
264 1 0.446297 0.711149 0.0504399 0.431295 -3.3248 -0.145639 0.184256 0.0105325 
263 1 0.488879 0.661121 0.0522969 0.789974 -3.22501 0.454475 -0.570277 -0.401115 
658 1 0.389414 0.719207 0.0988978 0.585326 -3.31227 -0.567383 -0.163767 0.127181 
661 1 0.436941 0.669558 0.0971264 0.764294 -3.27875 -0.707335 -0.392744 0.778639 
662 1 0.501443 0.701483 0.104302 0.449029 -3.29474 -0.0169607 0.193321 0.0300585 
262 1 0.502402 0.703519 0.00288145 0.541578 -3.31126 0.0399348 -0.019009 -0.640206 
258 1 0.436065 0.671777 -0.00200164 1.56694 -3.27374 0.0939583 -0.862292 0.257525 
267 1 0.602677 0.643232 0.049926 1.29455 -3.3293 0.549181 0.255684 0.187295 
268 1 0.552807 0.693068 0.050963 1.16984 -3.31726 0.877439 0.233264 0.22849 
666 1 0.617808 0.688168 0.102243 0.605121 -3.34435 -0.203933 -0.294326 -0.362096 
665 1 0.550217 0.653779 0.102937 0.443814 -3.32092 0.0718622 -0.235937 -0.292526 
307 1 0.62113 0.727981 0.0521884 0.663327 -3.33325 0.392121 -0.298629 0.126161 
272 1 0.678238 0.674349 0.0495591 2.19985 -3.30179 -0.596014 0.307019 0.0493386 
270 1 0.728513 0.67233 0.997822 0.692656 -3.32624 0.185078 0.00801163 -0.0960585 
311 1 0.735433 0.716757 0.0502686 0.646688 -3.29653 0.377922 -0.366212 0.0995252 
670 1 0.729986 0.670308 0.0979466 0.46765 -3.22686 0.13112 0.616411 0.0936283 
709 1 0.683412 0.722234 0.0982649 1.01454 -3.28275 -0.499622 -0.252127 0.198342 
276 1 0.78665 0.663969 0.04894 0.430122 -3.32247 -0.501492 0.239752 0.359238 
315 1 0.854512 0.699143 0.051805 0.655868 -3.3102 -0.331105 0.332438 0.140473 
674 1 0.840183 0.658473 0.101631 0.644571 -3.33391 -0.0071507 -0.315291 0.0321591 
713 1 0.794925 0.709808 0.0975958 0.581131 -3.36737 -0.256498 -0.0840196 0.170388 
313 1 0.793117 0.708289 1.0028 0.631013 -3.26859 -0.306751 -0.413477 -0.358278 
280 1 0.900168 0.651523 0.0567119 1.05683 -3.2744 -0.248224 -0.728203 -0.485786 
319 1 0.964853 0.681886 0.0516379 0.825189 -3.30086 0.347115 0.290402 -0.300249 
678 1 0.957629 0.64025 0.104526 0.769973 -3.24892 -0.498187 0.335969 -0.666018 
717 1 0.910284 0.691851 0.100335 0.267874 -3.28116 -0.0484755 0.322993 0.091042 
318 1 0.97223 0.727705 0.999536 0.732873 -3.29928 0.37991 -0.660313 -0.142922 
320 1 0.923238 0.734759 0.0487679 1.95882 -3.2879 -1.02376 -0.404776 0.604547 
718 1 0.975295 0.727716 0.100837 0.700185 -3.3087 -0.320435 0.439851 -0.0968884 