ITEM: TIMESTEP
10000
ITEM: NUMBER OF ATOMS
4000
ITEM: BOX BOUNDS pp pp pp
1.9574325939003785e+00 3.8542567406099053e+01
-1.0207735771678483e+00 4.1520773577167049e+01
-1.0125721445331028e+00 4.1512572144532875e+01
ITEM: ATOMS id type xs ys zs c_csym c_peratom fx fy fz 
8 1 0.10281 0.0509831 0.0542452 1.33857 -3.34115 0.240626 -0.122338 0.022489 
3 1 0.0485779 0.00405214 0.0528432 1.13005 -3.24653 0.320232 -0.291088 0.0555322 
445 1 0.0993272 0.102682 0.101548 0.648353 -3.28327 0.521483 -0.809405 -0.272317 
402 1 0.0475869 0.0484298 0.101776 1.09354 -3.30011 0.358639 0.525267 0.00218299 
405 1 0.102046 0.00119218 0.100059 0.441256 -3.33592 -0.00572283 0.0292739 0.368356 
12 1 0.200385 0.0484482 0.0475037 1.3273 -3.24739 -0.620344 0.324408 0.494317 
10 1 0.247915 0.0498239 0.00235763 0.254372 -3.28537 0.456467 0.0596044 -0.614657 
47 1 0.14795 0.103944 0.0495404 1.37566 -3.30729 0.275438 -0.473405 0.212853 
6 1 0.14617 0.0426815 -0.000664861 2.39418 -3.24737 0.588892 0.117827 0.251108 
16 1 0.297619 0.0504681 0.0518059 0.583745 -3.3412 0.311878 0.357726 -0.175307 
410 1 0.245981 0.049484 0.0989008 0.780195 -3.22972 0.0918683 0.18184 -0.408962 
14 1 0.351674 0.0549919 0.00136884 1.10956 -3.33621 -0.189526 -0.300143 0.220151 
20 1 0.399963 0.0480375 0.0570158 2.30818 -3.21054 -0.660841 0.733511 -0.794573 
24 1 0.499382 0.0493501 0.0477359 0.30663 -3.28826 0.39468 -0.0457013 0.265895 
18 1 0.449967 0.0495798 0.000369061 0.211478 -3.32656 -0.0498204 0.0945447 -0.0157661 
422 1 0.552927 0.048559 0.100332 0.629702 -3.33175 -0.407611 0.0722853 -0.137427 
28 1 0.603893 0.0480923 0.0514035 1.03001 -3.2776 -0.630527 0.535945 -0.473144 
21 1 0.502773 -0.000342603 -0.000729322 0.947944 -3.24948 -0.894505 0.120067 0.492731 
22 1 0.549042 0.0519783 -0.000688084 0.622192 -3.338 0.413296 -0.190019 0.0926614 
27 1 0.652776 0.00279426 0.0515869 1.09231 -3.22645 -0.0305785 -0.664921 -0.033133 
32 1 0.700598 0.0504824 0.0467382 0.567266 -3.3141 -0.0387486 -0.0980734 0.480068 
26 1 0.649731 0.0448005 -0.00335916 1.92211 -3.26088 0.34018 0.615517 0.435165 
31 1 0.755403 -0.00150467 0.0530373 1.31626 -3.24199 -0.83178 0.102602 -0.215348 
430 1 0.754641 0.0525885 0.101438 1.49669 -3.29026 -0.626431 -0.451657 -0.575207 
67 1 0.650998 0.102149 0.0478247 0.833341 -3.3419 -0.0556532 -0.329931 0.230126 
429 1 0.701144 0.00227541 0.0998004 0.42342 -3.29323 -0.074049 -0.0253736 -0.138775 
36 1 0.802671 0.0463502 0.0486482 1.26855 -3.2766 -0.132314 0.722066 0.204687 
35 1 0.848867 -0.00287759 0.0470831 0.890661 -3.27541 0.432634 0.0759369 0.105339 
71 1 0.749655 0.0972761 0.0473976 0.741244 -3.32878 0.00723785 0.328266 0.049572 
75 1 0.852272 0.100376 0.051925 0.422644 -3.30743 0.0122212 -0.00657589 -0.183025 
434 1 0.848024 0.0515465 0.10186 0.89199 -3.3209 -0.267835 0.255969 -0.0149494 
4 1 0.997862 0.0520036 0.0510555 0.945872 -3.23389 0.349038 -0.497147 0.38524 
40 1 0.898196 0.049249 0.0542747 0.787476 -3.31836 0.137055 -0.157461 -0.736599 
437 1 0.898527 0.0022249 0.0991718 0.666139 -3.28565 -0.162305 -0.528984 0.0349896 
43 1 0.0517534 0.0962546 0.0492894 0.993825 -3.31283 0.191837 0.478952 0.129849 
48 1 0.0997619 0.151596 0.0546162 1.28539 -3.22488 0.0304639 0.019016 -0.528945 
45 1 0.104705 0.0935356 -0.00239806 6.59286 -3.26948 -0.0444402 0.608486 0.101788 
52 1 0.195808 0.152964 0.0446861 2.19844 -3.23293 0.0273956 -0.200365 0.611358 
50 1 0.248438 0.147975 0.00095942 0.566611 -3.30433 0.0396868 -0.125872 -0.294106 
446 1 0.151731 0.150607 0.099908 0.630813 -3.24951 0.0830924 0.227042 -0.293303 
46 1 0.143767 0.151948 0.000149315 1.1893 -3.28287 0.325847 -0.51158 -0.141334 
89 1 0.195612 0.202615 2.64041e-06 0.726307 -3.3099 0.221875 -0.323931 -0.156114 
51 1 0.243396 0.10158 0.052765 1.61027 -3.34148 0.23747 -0.0963741 -0.414156 
55 1 0.350451 0.100624 0.050013 0.380814 -3.31044 0.308468 -0.471104 0.000268655 
56 1 0.301597 0.147755 0.0514385 0.550538 -3.25894 -0.140351 0.315357 -0.508301 
53 1 0.300646 0.101765 -0.00066637 0.369346 -3.34964 -0.318075 -0.211669 0.00914556 
93 1 0.301718 0.193807 -0.000665388 0.799646 -3.33844 0.087058 0.374106 0.0517232 
54 1 0.353919 0.147294 -0.00497256 1.1883 -3.25559 -0.270921 0.313422 0.46036 
59 1 0.449748 0.0980424 0.0507119 0.461046 -3.28606 0.167765 0.201239 0.000362966 
60 1 0.401365 0.146736 0.0479064 0.562945 -3.28363 -0.164739 0.418888 0.391847 
64 1 0.507123 0.149034 0.0467523 1.64916 -3.28399 -0.612271 0.109414 0.735287 
58 1 0.451491 0.151843 -0.000579141 0.842355 -3.31148 0.10269 -0.0807688 -0.0445881 
57 1 0.40384 0.102137 0.00116221 0.851901 -3.2507 -0.0813943 -0.484645 -0.104389 
63 1 0.550901 0.097934 0.0491434 0.549096 -3.2616 0.347545 -0.41661 -0.142865 
68 1 0.596667 0.146394 0.0526403 1.14761 -3.30572 0.232263 0.417266 0.074938 
103 1 0.55269 0.201207 0.0517441 0.55746 -3.2948 -0.107655 -0.126443 0.281873 
462 1 0.549534 0.148249 0.106201 1.2635 -3.27079 -0.00263924 0.404876 -0.53552 
465 1 0.597855 0.0997652 0.102244 0.309882 -3.29153 0.0605977 -0.03979 -0.0267783 
61 1 0.500845 0.101061 0.000636492 0.389817 -3.26459 -0.526319 -0.0174151 0.225471 
105 1 0.600849 0.199546 0.00409282 0.564261 -3.25834 -0.0632078 0.186964 -0.307952 
72 1 0.700256 0.15054 0.0501214 0.53461 -3.27998 -0.207198 -0.190974 0.136476 
107 1 0.648732 0.197393 0.0532342 0.53297 -3.27499 -0.0732543 0.00840049 -0.11836 
66 1 0.646609 0.150164 -0.00071228 0.5951 -3.28492 0.607811 -0.073731 0.523984 
70 1 0.746552 0.148356 0.00143145 0.930707 -3.2961 0.477193 -0.0185477 -0.147151 
76 1 0.801074 0.149132 0.0495412 0.408075 -3.28298 -0.313121 -0.0407763 0.0474669 
513 1 0.79708 0.198996 0.0981241 0.452057 -3.29064 -0.252096 0.223484 0.346413 
74 1 0.849157 0.150201 0.000479897 0.47279 -3.23305 0.994274 0.540653 0.306759 
115 1 0.847231 0.200436 0.0482103 0.488962 -3.34078 0.179232 -0.0931349 -0.144478 
44 1 0.998215 0.147333 0.0548829 1.2275 -3.29492 0.14644 0.0809876 -0.97438 
79 1 0.948901 0.096629 0.0513873 0.689374 -3.26102 -0.260925 0.573566 0.0536809 
80 1 0.901296 0.150597 0.054806 1.11168 -3.34306 -0.168734 -0.0970694 -0.447644 
117 1 0.900757 0.199754 -0.00411812 0.879917 -3.28869 -0.329096 -0.0486112 0.584582 
477 1 0.900277 0.0999331 0.102187 0.263395 -3.28013 -0.447181 0.0892008 -0.24786 
83 1 0.0474265 0.197297 0.0480755 1.13183 -3.31672 -0.0550938 0.487231 0.241701 
88 1 0.103515 0.250658 0.0522464 1.28628 -3.31745 -0.828442 0.260972 -0.343124 
123 1 0.0468878 0.300074 0.0507272 0.243586 -3.28212 0.0109697 -0.190216 -0.093043 
91 1 0.250045 0.195292 0.0473207 1.00532 -3.29789 -0.0431254 0.511261 0.273395 
87 1 0.148915 0.203773 0.0522638 0.751092 -3.23822 0.318836 -0.526428 0.130545 
92 1 0.199798 0.249821 0.0471196 0.369855 -3.31393 0.178672 -0.272478 0.252283 
86 1 0.146836 0.250253 -0.00437977 1.52245 -3.27503 -0.0936527 0.0845195 0.51004 
95 1 0.351999 0.197797 0.0497275 0.315139 -3.30499 -0.283239 -0.36794 0.226387 
96 1 0.300698 0.246392 0.0470627 0.299119 -3.36176 0.0526518 0.263913 -8.22621e-06 
135 1 0.352512 0.301302 0.0484148 0.894588 -3.32563 -0.014349 -0.442916 0.0943287 
94 1 0.35282 0.247376 0.00042969 0.395678 -3.26575 -0.669785 0.339123 0.173392 
133 1 0.301455 0.299017 -0.00470196 0.851218 -3.30138 -0.172034 -0.30411 0.574584 
97 1 0.398407 0.199091 -0.000285909 0.766254 -3.26658 0.63737 -0.346724 0.141176 
99 1 0.45263 0.195311 0.0476937 1.10502 -3.3515 0.0650913 0.369828 0.277884 
100 1 0.399577 0.244291 0.0515727 1.18506 -3.32213 0.510071 0.533974 -0.141382 
98 1 0.455498 0.249663 0.000684609 1.17192 -3.27571 -0.622442 -0.687308 0.29447 
497 1 0.404511 0.19749 0.102728 1.14078 -3.33591 -0.209242 0.0443422 -0.318279 
101 1 0.505975 0.20024 -0.00283055 1.06067 -3.28512 -0.355046 -0.196433 0.428693 
104 1 0.500824 0.246491 0.0546055 1.83762 -3.33629 -0.00133787 0.308069 -0.200316 
143 1 0.554428 0.297172 0.0470926 1.50075 -3.30621 -0.722781 0.0431173 0.587613 
108 1 0.603675 0.249103 0.0526264 0.588549 -3.24351 -0.16207 -0.0837971 -0.168612 
145 1 0.599427 0.300431 -1.33539e-05 0.21613 -3.21889 0.127289 0.0103239 -0.253782 
141 1 0.499279 0.297096 0.000769822 0.506453 -3.25266 0.560273 0.34851 0.108386 
112 1 0.698282 0.247381 0.05144 0.703384 -3.29269 0.0490042 0.276895 -0.574387 
110 1 0.751913 0.249241 -0.00524617 1.29006 -3.31242 -0.0279482 -0.0148233 0.533884 
109 1 0.699203 0.199278 0.00334806 0.560989 -3.32639 -0.110031 0.153996 -0.507045 
147 1 0.646112 0.302658 0.0494512 0.894986 -3.29138 0.590308 -0.18868 -0.0436008 
506 1 0.652023 0.254613 0.100035 1.56328 -3.20747 -0.285197 -0.659261 0.0654379 
111 1 0.751446 0.198424 0.0477381 0.679668 -3.30874 -0.14921 0.24106 0.396038 
151 1 0.750678 0.302023 0.0479007 0.482459 -3.29825 -0.207118 -0.274278 0.274494 
116 1 0.799423 0.252964 0.0482625 0.669959 -3.30073 -0.171967 -0.236188 -0.124473 
553 1 0.798519 0.297658 0.0992627 0.321589 -3.31958 0.0783614 0.243812 -0.13507 
84 1 0.99334 0.252169 0.0499329 1.2174 -3.33759 0.377203 -0.164144 -0.313479 
119 1 0.949756 0.201277 0.049226 0.458391 -3.27698 0.111409 -0.535744 -0.0325097 
120 1 0.900333 0.246785 0.0490824 1.12023 -3.3229 -0.155696 0.628093 -0.233766 
159 1 0.947493 0.306105 0.0491358 1.99694 -3.29741 -0.027516 -0.479067 -0.231471 
481 1 1.00114 0.200734 0.0981983 0.586166 -3.29577 0.113931 0.0231836 -0.00880506 
118 1 0.94641 0.247777 -0.00424776 1.37343 -3.2443 0.428203 0.347046 0.614125 
128 1 0.102249 0.34894 0.0533314 1.40415 -3.29377 -0.557051 0.0225342 -0.239492 
163 1 0.0513187 0.401049 0.0508097 0.537669 -3.28014 -0.0488263 -0.153994 0.0696724 
125 1 0.0967043 0.299873 0.00396736 0.710646 -3.27988 0.141845 -0.317981 -0.104262 
122 1 0.0489205 0.349188 0.00386319 0.642575 -3.28933 0.406232 0.0849905 -0.506678 
165 1 0.0939074 0.400938 -0.000562614 1.15969 -3.30718 0.589363 0.0475257 -0.0704241 
127 1 0.153799 0.298751 0.051071 1.4389 -3.27705 -0.602411 0.137454 -0.0748441 
131 1 0.249242 0.296615 0.047411 0.302015 -3.35315 0.180936 0.303388 -0.112264 
132 1 0.199539 0.349887 0.0446626 0.984148 -3.33255 0.245312 0.0558204 0.466251 
126 1 0.143072 0.348869 0.00133447 1.57467 -3.28352 0.601829 0.356735 -0.191677 
171 1 0.250966 0.401804 0.0461625 1.13736 -3.26194 -0.0602267 -0.561418 0.348223 
130 1 0.250074 0.346749 -0.00404167 0.438931 -3.32613 0.19062 0.128215 0.37456 
533 1 0.302778 0.300286 0.0968167 0.920259 -3.27057 0.0804369 -0.422003 -0.076756 
136 1 0.299954 0.347557 0.0515175 0.578531 -3.33857 -0.191194 0.297211 -0.437007 
134 1 0.352483 0.345928 0.00141913 0.575077 -3.31555 -0.199326 0.534383 0.194429 
173 1 0.30095 0.3979 -0.000502721 0.192854 -3.33691 0.0534791 0.0178436 -0.0728881 
139 1 0.448743 0.299166 0.0506968 0.585696 -3.3015 0.339431 -0.0659035 0.369445 
140 1 0.403839 0.353888 0.0557596 2.17175 -3.25824 -0.276666 -0.411822 -0.942935 
179 1 0.454044 0.402536 0.0541612 0.921795 -3.27506 -0.276062 -0.0638027 -0.137822 
581 1 0.505712 0.401696 0.101304 0.660647 -3.28356 -0.300466 0.0700322 0.0502882 
137 1 0.404183 0.296695 0.00290714 0.539501 -3.23701 -0.206036 -0.0532095 -0.262986 
177 1 0.40378 0.396112 0.000354756 1.25461 -3.34244 -0.257756 0.265277 0.586201 
181 1 0.495147 0.403827 0.000326385 2.03211 -3.2947 0.124319 -0.000542344 0.170631 
144 1 0.500094 0.350543 0.0498637 0.315417 -3.28975 -0.0127319 -0.375311 0.322171 
148 1 0.595687 0.349845 0.0473973 1.10556 -3.26614 0.257948 0.030493 0.259121 
542 1 0.550263 0.351613 0.101571 0.862365 -3.28313 -0.0716256 -0.608766 -0.135636 
183 1 0.550152 0.397714 0.0472803 1.05359 -3.25227 -0.15873 0.584676 -0.100366 
585 1 0.59827 0.397898 0.097314 6.41791 -3.18797 0.562504 0.0210616 0.181417 
152 1 0.699203 0.350208 0.0503214 0.189065 -3.30878 0.053773 0.0654041 0.387799 
146 1 0.647065 0.350272 0.000995672 0.517769 -3.25565 0.390058 -0.0353117 0.0563547 
187 1 0.648682 0.398894 0.0519825 0.680913 -3.29569 0.237705 0.0583744 -0.131123 
546 1 0.649088 0.35093 0.10033 0.34711 -3.31793 0.409788 0.19039 -0.0217004 
589 1 0.703477 0.402681 0.100158 0.782213 -3.2984 -0.0992725 -0.527549 0.00856769 
155 1 0.852442 0.300277 0.0498823 0.882746 -3.27237 -0.527362 -0.103018 -0.471983 
156 1 0.798984 0.351322 0.0462498 0.715813 -3.27616 0.383583 0.00179203 0.909316 
195 1 0.844393 0.404414 0.0490066 1.40625 -3.25767 0.618058 -0.389982 0.326759 
191 1 0.751077 0.404188 0.0516531 0.5983 -3.29397 -0.0402168 -0.403644 -0.292669 
593 1 0.799317 0.402535 0.0998649 0.365437 -3.31559 0.00176203 -0.401194 0.133585 
554 1 0.850253 0.347396 0.0973768 0.731794 -3.29743 -0.731322 0.625038 0.390734 
124 1 1.00058 0.351654 0.0487938 0.606848 -3.22335 -0.330224 -0.0919717 0.521189 
160 1 0.895164 0.353902 0.0485121 1.2489 -3.27817 0.329592 -0.00953671 -0.0493335 
597 1 0.899485 0.398826 0.10181 0.311178 -3.34613 -0.304788 -0.134784 -0.35711 
168 1 0.0984591 0.451574 0.0489548 0.570109 -3.29228 0.110963 -0.0850147 -0.166733 
164 1 -0.00286692 0.450185 0.0502013 0.282255 -3.29968 -0.308572 0.0894523 -0.0942732 
565 1 0.105459 0.398294 0.0975347 1.37278 -3.28279 -0.771008 0.101545 -0.189473 
201 1 -0.00185904 0.502978 -0.00293209 0.460959 -3.3338 0.127452 0.26693 0.22488 
205 1 0.104324 0.50092 0.00508443 2.48768 -3.27513 -0.784425 -0.22842 -0.936163 
167 1 0.149577 0.402129 0.0464503 0.835151 -3.27852 -0.253029 -0.315016 -0.0160674 
172 1 0.19963 0.44872 0.0474773 0.416588 -3.25801 0.249926 0.133578 -0.0866635 
207 1 0.154175 0.500017 0.0490187 1.1291 -3.20707 0.199172 -0.219484 0.129444 
209 1 0.201441 0.500769 -0.00113612 0.605029 -3.25607 -0.720578 -0.393298 0.0867599 
166 1 0.148572 0.448866 -0.00178707 0.426928 -3.34463 0.352487 -0.008854 -0.0457412 
175 1 0.349847 0.397809 0.0539927 0.473389 -3.3068 -0.0865288 0.0370499 -0.543385 
176 1 0.300779 0.44743 0.050816 0.50782 -3.27889 -0.41451 0.365214 -0.287651 
213 1 0.304747 0.499104 0.00119486 0.567433 -3.38036 -0.247506 -0.0526638 -0.204348 
215 1 0.354384 0.495201 0.0519914 1.17629 -3.24212 -0.548643 0.605752 0.406872 
180 1 0.403254 0.449829 0.0570183 1.26814 -3.22003 -0.0447293 -0.453474 -0.349582 
184 1 0.502956 0.449855 0.0543094 0.603951 -3.30402 0.115991 0.030566 -0.287916 
578 1 0.453004 0.451364 0.104352 0.366949 -3.19208 0.0624146 -0.789082 0.0255608 
223 1 0.550371 0.500286 0.0513058 0.500507 -3.25241 -0.208654 -0.15622 0.595582 
188 1 0.599997 0.447918 0.0498708 0.609919 -3.30006 0.142366 0.136481 -0.173583 
621 1 0.502236 0.497298 0.102582 0.403999 -3.30268 0.359305 0.35283 0.263926 
582 1 0.559832 0.44908 0.100967 2.40847 -3.22103 -0.814089 0.412227 0.195337 
192 1 0.699499 0.452283 0.0480992 0.338406 -3.25527 -0.100841 -0.0641713 0.449872 
227 1 0.647067 0.499092 0.048107 0.52075 -3.31767 0.324706 0.351408 0.372243 
590 1 0.751836 0.454439 0.0996187 0.764541 -3.24622 -0.10757 -0.0303444 -0.350744 
229 1 0.696053 0.504481 -0.00279776 1.07791 -3.29784 0.423663 -0.136999 0.512726 
190 1 0.745875 0.451603 0.00129282 0.748409 -3.34038 0.370324 0.0262772 -0.305831 
196 1 0.799708 0.452929 0.0502026 0.247706 -3.28063 -0.0121849 0.403639 -0.236523 
231 1 0.749382 0.50285 0.0498237 0.336825 -3.32567 0.391321 -0.275276 -0.272231 
633 1 0.803123 0.506506 0.102879 1.99428 -3.19119 -0.443845 -1.12445 -0.392268 
194 1 0.852137 0.449443 -0.00292085 1.11017 -3.26021 -0.293062 0.0636108 0.510335 
233 1 0.801268 0.500316 -0.00294714 0.725032 -3.29762 0.0289775 -0.107137 0.848252 
199 1 0.950466 0.399644 0.0506401 0.344906 -3.28764 -0.541421 0.125425 0.221157 
561 1 0.999458 0.400149 0.0982601 0.45465 -3.29546 -0.316176 -0.232709 0.367147 
200 1 0.89849 0.450068 0.0525481 0.64142 -3.34005 0.261352 -0.105108 -0.164365 
239 1 0.948591 0.503875 0.0473077 1.59571 -3.30897 -0.380264 -0.412262 -0.186759 
598 1 0.948612 0.446171 0.106104 1.87687 -3.22066 0.375327 -0.0595788 -0.689991 
601 1 0.99212 0.497515 0.0998811 1.84408 -3.27884 0.260542 0.0395808 -0.0710903 
203 1 0.0458783 0.498012 0.0519461 1.45455 -3.30981 -0.0315961 0.414302 -0.336258 
208 1 0.0996411 0.546665 0.0492441 1.30233 -3.3172 0.00143181 0.774433 0.103181 
245 1 0.0991835 0.60213 -0.000933082 0.362774 -3.21052 0.0387204 0.209993 0.473269 
602 1 0.0446917 0.548263 0.0986864 0.95753 -3.33627 0.348349 0.0345093 0.194688 
204 1 -0.00225336 0.550452 0.0498754 0.3903 -3.28121 0.411877 0.129576 -0.568394 
243 1 0.0478118 0.600193 0.0500446 0.618305 -3.32221 0.534045 -0.323762 -0.187791 
212 1 0.192658 0.552197 0.0481811 1.9188 -3.29148 0.711263 -0.00144518 -0.000814041 
206 1 0.149411 0.550309 -0.00398921 1.29951 -3.2118 0.0964161 0.0763885 0.824249 
211 1 0.24416 0.500535 0.0494535 1.36881 -3.29358 0.33383 -0.0708468 -0.223484 
610 1 0.247461 0.548212 0.0981335 0.445425 -3.34692 -0.0854909 0.198289 -0.10211 
210 1 0.248552 0.549687 -0.0020458 0.518676 -3.29428 0.370166 0.153627 0.581638 
216 1 0.30092 0.545517 0.0469472 1.04834 -3.32505 -0.433711 0.139082 0.544944 
251 1 0.248227 0.598555 0.0479855 0.252037 -3.27876 0.283016 -0.298759 0.325941 
253 1 0.299905 0.600382 0.00228117 0.193921 -3.25391 -0.129272 -0.059691 -0.129586 
219 1 0.452313 0.497528 0.0559828 0.98554 -3.27276 0.0891806 0.269551 -0.639272 
220 1 0.408657 0.55012 0.0517979 2.30191 -3.27854 -0.687646 0.127742 -0.0297498 
259 1 0.456333 0.602653 0.0470469 2.58256 -3.21655 -0.648435 -0.180315 0.950955 
617 1 0.402286 0.494631 0.104901 1.2179 -3.19794 -0.472714 0.43397 -0.161548 
618 1 0.447174 0.544595 0.102402 5.93307 -3.31402 0.552204 0.538482 0.379354 
218 1 0.448574 0.550761 0.000171359 0.932974 -3.21551 0.46061 -0.075572 -0.032297 
257 1 0.400678 0.598529 0.00526905 0.989733 -3.20111 -0.132159 0.561679 -0.216731 
224 1 0.501023 0.550461 0.0487822 0.358922 -3.3671 -0.0500131 -0.0120955 0.467615 
622 1 0.552639 0.547583 0.102408 0.677847 -3.29895 -0.271296 0.06196 -0.166891 
228 1 0.596427 0.550907 0.0511429 0.838909 -3.28074 0.527402 -0.0934308 -0.0430523 
263 1 0.550759 0.600359 0.0476883 0.774848 -3.27544 -0.238143 0.253952 0.457823 
665 1 0.598534 0.600505 0.100181 0.471902 -3.34965 0.31639 -0.0260905 -0.0896085 
661 1 0.501731 0.598561 0.100083 0.599565 -3.36786 -0.222368 -0.074505 -0.0325707 
232 1 0.702135 0.550548 0.0467484 0.760736 -3.30643 -0.474124 -0.0694619 0.195552 
626 1 0.649901 0.549791 0.0984795 0.501795 -3.35909 0.286927 0.176737 -0.109005 
669 1 0.696634 0.604693 0.100309 1.16385 -3.28108 0.0761643 -0.601437 -0.230755 
267 1 0.65199 0.598497 0.0493656 0.85362 -3.31822 -0.116765 0.0641431 0.132635 
226 1 0.643812 0.552305 -0.0037094 1.73941 -3.27871 0.603656 -0.34092 0.623671 
630 1 0.752068 0.549422 0.0987846 0.875727 -3.28855 -0.796385 0.451313 0.0164743 
235 1 0.850292 0.500124 0.0510498 0.578136 -3.26051 -0.127191 -0.33073 -0.0992902 
236 1 0.803345 0.549284 0.0501863 1.14512 -3.3193 -0.173295 0.410186 -0.159911 
271 1 0.747569 0.60178 0.0515795 1.01685 -3.28183 -0.00458226 -0.125914 -0.182779 
634 1 0.853047 0.549636 0.102582 1.31426 -3.18694 0.12594 0.177814 0.133126 
275 1 0.850026 0.60689 0.0493723 2.19728 -3.29145 -0.0633535 -0.351197 -0.288676 
273 1 0.79341 0.601952 -0.000441529 1.36971 -3.311 0.506961 0.171355 -0.118638 
240 1 0.889251 0.551949 0.0497113 7.58813 -3.27091 0.784971 0.172008 -0.662351 
279 1 0.948595 0.60173 0.047395 0.432489 -3.28494 -0.338376 -0.420444 0.241316 
677 1 0.902137 0.59719 0.0987475 1.77954 -3.27262 -0.369657 0.544578 -0.142773 
238 1 0.944538 0.550381 -0.00193214 0.513938 -3.31958 0.0127418 -0.0123725 0.14324 
248 1 0.0979049 0.651274 0.0450108 1.07114 -3.31596 -0.342516 0.0805796 0.187514 
283 1 0.0496249 0.700534 0.052273 0.859724 -3.28415 0.230037 -0.037215 -0.640471 
642 1 0.0521754 0.650011 0.0984112 0.581435 -3.22716 -0.0725291 0.0177249 -0.477414 
685 1 0.102959 0.698968 0.0999553 0.661106 -3.24549 0.370135 -0.0559115 -0.286241 
281 1 -0.000282504 0.701058 0.00296556 1.17175 -3.26575 -0.00893418 -0.217436 -0.443304 
247 1 0.146407 0.601521 0.0493216 0.617294 -3.29721 -0.223845 -0.262039 -0.0867642 
252 1 0.199404 0.649599 0.0527363 0.93962 -3.24428 -0.418747 -0.156202 -0.450451 
287 1 0.151117 0.700971 0.0457101 0.928217 -3.30388 -0.367761 -0.0818994 0.797544 
646 1 0.144361 0.644969 0.0959224 2.45844 -3.2299 0.352189 0.594887 0.557945 
289 1 0.195953 0.70388 -0.000295851 1.11754 -3.20407 0.64777 -0.711152 -0.417687 
255 1 0.348146 0.598843 0.0505285 0.760264 -3.25466 0.552306 0.0212754 0.264991 
256 1 0.299453 0.648095 0.050129 0.301624 -3.27548 0.13257 0.115555 0.148139 
295 1 0.351078 0.697214 0.0536884 0.580817 -3.25755 -0.2287 0.205962 -0.0284478 
291 1 0.245261 0.696991 0.0493627 1.1418 -3.27578 0.300682 0.486799 0.214408 
654 1 0.347118 0.650922 0.103898 1.05782 -3.34754 -0.117821 -0.301539 -0.321951 
657 1 0.401425 0.601941 0.0987759 1.20319 -3.33098 -0.367163 -0.356497 -0.36729 
260 1 0.39964 0.650998 0.0532121 0.442997 -3.27654 -0.0578165 -0.40283 0.0487473 
299 1 0.446236 0.702328 0.0549461 0.746745 -3.28811 0.166004 -0.0321053 -0.448687 
258 1 0.443568 0.650995 0.00262305 1.61072 -3.29918 0.602424 0.0144199 -0.211757 
264 1 0.498118 0.65449 0.0514772 0.882191 -3.2857 0.333577 0.0550344 -0.27286 
268 1 0.600425 0.648432 0.0538076 1.11478 -3.31711 0.0353137 0.131536 -0.42046 
662 1 0.546557 0.651778 0.100985 0.800273 -3.31935 0.0990182 -0.208327 -0.164968 
705 1 0.595916 0.701919 0.0963549 1.28994 -3.18639 0.675631 -0.318835 0.0974847 
265 1 0.603152 0.602424 0.000170307 0.764012 -3.24467 -0.302272 0.513264 0.116126 
262 1 0.550581 0.651991 0.00478473 0.935804 -3.34799 0.0812058 0.0830863 -0.312278 
269 1 0.701244 0.599658 -0.00137395 0.519524 -3.29402 0.00888171 0.0103896 0.181973 
272 1 0.699485 0.65176 0.0514345 0.666654 -3.22506 0.531328 -0.611371 -0.104079 
307 1 0.65288 0.695199 0.0500032 2.47419 -3.23477 -0.600578 0.988211 -0.0445418 
709 1 0.700988 0.699305 0.0978988 0.629531 -3.29724 -0.0532575 0.325741 0.341308 
311 1 0.749014 0.702549 0.0478853 0.410912 -3.32262 -0.0536065 -0.0353351 -0.397576 
309 1 0.698058 0.7041 -0.00574796 1.82982 -3.28364 0.356108 -0.425005 0.40533 
276 1 0.796839 0.653044 0.0440515 1.50775 -3.27276 0.25713 -0.0326515 0.547825 
674 1 0.848029 0.651237 0.0989427 0.663821 -3.35949 -0.133694 0.178694 -0.384572 
713 1 0.798289 0.701827 0.0959965 0.62391 -3.31488 0.38441 0.213594 0.165579 
270 1 0.748179 0.65277 -0.00191789 0.328589 -3.32034 -0.332854 0.233879 -0.191732 
244 1 1.00029 0.647243 0.0484733 0.567807 -3.29204 -0.0479185 0.6603 0.05685 
280 1 0.902302 0.652061 0.0501404 0.479784 -3.27701 -0.243262 -0.00173724 -0.0400569 
681 1 1.00196 0.698953 0.0985389 0.219876 -3.31191 -0.535156 0.0706434 0.418689 
319 1 0.950608 0.698294 0.0486724 0.445194 -3.26733 0.105924 0.273341 -0.0453633 
678 1 0.950367 0.649813 0.0998109 0.542446 -3.28658 0.282268 0.319648 -0.371911 
288 1 0.102347 0.751422 0.0488923 0.610598 -3.33078 -0.114593 -0.175768 0.18489 
682 1 0.0546632 0.744996 0.0992807 2.56691 -3.29111 -0.129702 0.861344 0.181511 
323 1 0.0516485 0.801397 0.051764 0.792546 -3.30978 0.00563915 -0.494321 0.245115 
292 1 0.203069 0.751876 0.048326 1.13908 -3.26416 -0.604972 -0.2061 0.56785 
729 1 0.198983 0.798402 0.100514 0.701039 -3.25318 -0.000938595 0.363037 -0.31382 
686 1 0.151523 0.749507 0.103035 0.458134 -3.3682 -0.193285 -0.0757598 -0.23334 
690 1 0.245142 0.747021 0.103329 1.63929 -3.31731 0.216239 0.224886 -0.459261 
296 1 0.300782 0.745656 0.0519529 0.772719 -3.36425 -0.250877 0.154907 -0.124563 
694 1 0.350409 0.75195 0.102429 0.406986 -3.23066 -0.233277 -0.209137 -0.0229764 
300 1 0.394078 0.749666 0.0554832 1.18627 -3.21185 0.468385 -0.144751 -0.627843 
698 1 0.445827 0.753317 0.10164 1.03919 -3.31543 0.390995 -0.429753 0.228312 
339 1 0.445429 0.798545 0.0526491 0.610992 -3.31143 0.570464 0.0226645 -0.182707 
304 1 0.500881 0.748008 0.0516996 0.561336 -3.33121 -0.302109 0.406958 -0.222675 
697 1 0.399717 0.699759 0.102627 0.318655 -3.28777 0.0697289 0.23424 0.240875 
303 1 0.552024 0.702783 0.0489111 0.947542 -3.22189 -0.714416 -0.442031 -0.0485808 
301 1 0.49564 0.69949 -0.000219552 0.771152 -3.34014 0.340143 0.0396019 0.420763 
701 1 0.498349 0.704646 0.10063 1.01842 -3.30279 0.00119488 -0.443148 0.0859413 
308 1 0.602303 0.75113 0.0485347 0.640136 -3.29297 -0.1685 0.185777 0.107368 
745 1 0.600148 0.800958 0.0992231 0.350673 -3.33308 0.117905 0.400577 -0.129847 
702 1 0.550658 0.749554 0.100788 0.507836 -3.21224 -0.204642 0.511708 -0.443348 
302 1 0.549757 0.748924 -0.000746875 0.286794 -3.32564 -0.0322211 -0.0653169 -0.0433903 
312 1 0.695816 0.75031 0.048267 0.67774 -3.28862 0.123811 -0.0827931 -0.0346153 
749 1 0.697979 0.799558 0.0962446 0.599404 -3.27661 0.118877 0.152306 0.52044 
306 1 0.649418 0.75141 0.000526741 0.465852 -3.20952 -0.052876 0.142081 -0.115147 
315 1 0.850005 0.70418 0.0492407 0.525223 -3.30211 0.119865 -0.28144 0.191017 
710 1 0.74549 0.750735 0.0946486 0.899824 -3.29623 0.338827 0.0308648 0.424935 
351 1 0.74878 0.79962 0.0473472 0.321806 -3.31391 0.1866 -0.0945682 -0.050274 
316 1 0.800959 0.753782 0.0492016 0.586284 -3.3101 -0.107785 -0.262335 0.0152224 
714 1 0.853521 0.749918 0.0993087 0.637689 -3.30707 -0.0176721 0.146318 -0.25192 
284 1 0.997899 0.751782 0.0497443 0.805293 -3.3062 0.300266 -0.18662 0.378828 
320 1 0.904084 0.751936 0.0491525 0.493312 -3.33424 -0.211541 -0.0144026 0.0485196 
359 1 0.952521 0.802648 0.0502574 0.403686 -3.33975 -0.0838407 -0.0297737 0.0981053 
328 1 0.0949183 0.851951 0.053229 1.4617 -3.264 0.796477 0.0521778 0.097214 
725 1 0.099997 0.80265 0.106613 1.32986 -3.33585 0.010326 -0.310186 -0.395932 
722 1 0.0489931 0.852384 0.104024 0.57862 -3.26815 0.0106658 0.0201728 -0.264849 
322 1 0.0549386 0.845912 0.00211554 1.2475 -3.26577 -0.284303 0.480292 -0.437273 
327 1 0.149138 0.802151 0.0512919 0.549629 -3.33455 -0.247206 0.0275539 0.0123903 
332 1 0.204395 0.846721 0.0488292 1.49302 -3.36685 0.0685716 0.28199 0.276832 
769 1 0.199806 0.898871 0.0997746 0.632678 -3.30694 0.507175 0.12538 0.200745 
331 1 0.253613 0.796568 0.0532941 1.29784 -3.22845 -0.174828 0.146516 -0.387164 
371 1 0.252738 0.899858 0.0500707 0.371338 -3.28912 -0.232622 -0.116667 0.127038 
367 1 0.153923 0.898481 0.0514433 0.750468 -3.28962 -0.362168 -0.0899281 0.0793578 
726 1 0.149605 0.851927 0.101222 0.496936 -3.3029 0.140639 -0.238186 -0.219094 
335 1 0.347915 0.797071 0.0522721 0.53001 -3.30847 -0.063591 0.445304 -0.200032 
336 1 0.298711 0.848933 0.0515162 0.714808 -3.32627 0.101119 0.190503 0.0206669 
734 1 0.348179 0.85415 0.10222 1.07005 -3.31865 -0.178871 -0.35158 -0.13209 
334 1 0.348066 0.8432 0.00361836 1.82551 -3.3194 -0.294537 0.36168 -0.23107 
375 1 0.352553 0.901638 0.0510493 0.630173 -3.27207 -0.102174 -0.13986 0.570565 
730 1 0.252254 0.850325 0.105648 1.51849 -3.29578 -0.541039 0.354825 -0.657198 
733 1 0.299627 0.802649 0.09975 0.936975 -3.22217 0.228046 -0.430142 0.391161 
340 1 0.398193 0.849548 0.0538644 0.590288 -3.34871 -0.00433398 -0.136539 -0.225155 
344 1 0.501189 0.849065 0.0511852 0.545138 -3.34378 -0.0931603 -0.00929963 -0.141451 
379 1 0.447745 0.897548 0.0505701 0.41461 -3.29786 -0.123967 -0.111691 -0.453534 
741 1 0.499283 0.798283 0.0984363 0.72292 -3.28282 0.444761 -0.147849 0.0798477 
338 1 0.447352 0.849851 0.00102467 0.36679 -3.33611 0.391836 -0.0832135 0.210485 
343 1 0.550273 0.797712 0.0474658 0.722639 -3.3199 -0.0944582 0.103661 0.320227 
348 1 0.59353 0.852835 0.0509339 1.82682 -3.30445 0.549802 -0.384448 -0.134311 
383 1 0.551452 0.90424 0.0468588 1.63311 -3.26621 -0.283864 -0.419734 0.278438 
347 1 0.651545 0.804899 0.0489424 1.09067 -3.30075 -0.663995 -0.27149 -0.0600174 
352 1 0.704943 0.849886 0.0511344 1.10714 -3.25614 -0.57472 0.387218 -0.310167 
789 1 0.700901 0.899352 0.102328 0.666995 -3.27405 0.0804484 0.289481 -0.570733 
346 1 0.648787 0.850676 0.00329956 0.792634 -3.27843 0.456478 0.0989923 -0.151012 
355 1 0.85227 0.801407 0.0493215 0.195404 -3.32133 -0.0625212 -0.0813204 0.0830281 
750 1 0.750008 0.850988 0.0984461 0.227749 -3.28641 -0.0463614 -0.435627 0.394409 
356 1 0.799265 0.847552 0.0486076 0.461353 -3.31397 -0.171552 0.189285 -0.0589176 
391 1 0.753542 0.901095 0.0485844 0.593591 -3.27045 -0.23939 -0.24496 0.368741 
753 1 0.801369 0.798674 0.0977891 0.397532 -3.30177 -0.336118 0.339073 -0.227821 
754 1 0.850649 0.846992 0.0965614 0.533283 -3.31832 0.175713 0.23732 0.290878 
324 1 1.00214 0.851758 0.0486361 0.797673 -3.31975 -0.148931 -0.154892 0.296363 
360 1 0.903243 0.852393 0.0477678 0.826303 -3.32735 -0.0516594 -0.41643 0.182936 
757 1 0.903084 0.799428 0.100752 0.380212 -3.29444 -0.138172 0.196958 -0.35141 
761 1 0.994936 0.899752 0.100946 1.34245 -3.29096 0.717884 0.175004 -0.470967 
361 1 1.00249 0.897754 -0.00130002 0.747038 -3.27323 0.0727391 0.0997783 0.34381 
363 1 0.0474347 0.901518 0.0519104 0.559636 -3.33314 -0.176711 0.340132 0.0667621 
765 1 0.0990777 0.90174 0.0994702 0.38293 -3.33025 0.214767 0.18269 0.150495 
368 1 0.100023 0.949085 0.0513814 0.329273 -3.30776 -0.123368 0.104983 0.754227 
364 1 -0.00061277 0.955821 0.0497795 1.78832 -3.27467 0.536438 -0.867852 0.0679616 
762 1 0.0481537 0.95485 0.101591 0.672248 -3.3341 0.344901 -0.650308 -0.215276 
362 1 0.0554647 0.946727 0.00122501 1.44481 -3.19718 -0.979258 0.0307157 0.0661111 
11 1 0.248742 0.999911 0.0487409 0.414378 -3.22476 0.137332 -0.0295199 0.475214 
7 1 0.152476 0.999753 0.0538437 0.574424 -3.29794 -0.110639 -0.221608 -0.154543 
372 1 0.203994 0.9464 0.0508391 0.773679 -3.34183 -0.181592 0.457015 0.185702 
770 1 0.254209 0.951713 0.101322 0.833525 -3.29823 -0.590326 0.0842365 -0.289501 
370 1 0.251888 0.947033 -0.00205069 1.21213 -3.29812 -0.0735073 0.488375 0.420698 
773 1 0.299971 0.903056 0.100234 0.444172 -3.2762 0.125548 -0.344268 -0.146478 
15 1 0.352948 1.00003 0.0490824 0.822376 -3.26008 0.0254672 0.206643 0.191284 
376 1 0.299799 0.955434 0.0495029 1.35254 -3.27719 0.0263491 -0.72419 0.112154 
374 1 0.351202 0.948064 0.00341777 0.964625 -3.24548 0.453489 0.73757 -0.348906 
774 1 0.354087 0.950498 0.0989856 0.565854 -3.32746 -0.384402 0.141227 0.0176983 
413 1 0.301983 1.0023 0.0953449 1.51412 -3.27495 -0.0369332 -0.349082 0.570105 
777 1 0.401781 0.898503 0.101516 0.550095 -3.20277 -0.227204 -0.0949663 -0.478804 
380 1 0.402925 0.950707 0.0509031 0.695588 -3.29718 0.286012 0.0134344 -0.237287 