ITEM: TIMESTEP
6250
ITEM: NUMBER OF ATOMS
4000
ITEM: BOX BOUNDS pp pp pp
1.1952422853129061e+00 3.9304757714686524e+01
-5.9382139012223001e-01 4.1093821390121818e+01
-5.9939776828879909e-01 4.1099397768288433e+01
ITEM: ATOMS id type xs ys zs c_csym c_peratom fx fy fz 
4 1 -0.00120221 0.0510519 0.0495297 0.284125 -3.27705 0.647397 -0.644016 -0.13755 
8 1 0.100142 0.0509582 0.0488799 0.330034 -3.32632 0.133316 0.026563 -0.0684793 
402 1 0.0503912 0.0498489 0.0989705 0.251355 -3.34374 -0.101318 0.310322 -0.0231382 
2 1 0.047224 0.0495813 -0.004474 0.852285 -3.36244 0.199419 0.0161836 0.227391 
5 1 0.100333 0.0027375 0.000223691 0.457967 -3.34853 -0.0259592 -0.256147 -0.0249331 
45 1 0.10151 0.0964218 0.00258089 1.90314 -3.32093 -0.0723069 0.309282 -0.596211 
12 1 0.207543 0.0511251 0.047702 1.16821 -3.28769 -0.336806 0.12458 0.15908 
47 1 0.156446 0.0994297 0.0432134 1.82702 -3.29845 -0.523153 0.107374 0.937197 
406 1 0.154886 0.0496256 0.0967217 0.673129 -3.31281 -0.257127 0.23555 0.154238 
49 1 0.202685 0.100833 -0.00299547 0.385518 -3.29526 0.0994761 -0.0104813 -0.534252 
16 1 0.297414 0.0512324 0.0480563 0.544851 -3.39142 0.19652 0.0113617 0.164156 
51 1 0.251107 0.103963 0.0472826 0.997806 -3.29025 0.152965 -0.311259 0.175344 
410 1 0.250383 0.0493649 0.104294 1.24669 -3.24834 -0.170466 0.0523636 -0.528535 
11 1 0.249628 0.00142784 0.051379 0.412139 -3.30006 0.129351 -0.358981 -0.196537 
413 1 0.301096 0.00375319 0.0988327 0.855674 -3.29956 0.115994 -0.453119 -0.191517 
20 1 0.39823 0.051556 0.0472316 0.433098 -3.30751 0.466415 -0.347746 0.0881993 
55 1 0.352302 0.0990618 0.0467605 0.619088 -3.30726 -0.719692 0.362925 0.131136 
414 1 0.352086 0.051436 0.100271 0.465681 -3.25075 -0.645387 -0.0128905 -0.343672 
457 1 0.399523 0.0975976 0.0951141 1.1128 -3.22714 0.144233 0.659789 0.286607 
417 1 0.398232 0.00489685 0.102173 1.21149 -3.28034 0.454087 -0.552393 -0.432088 
24 1 0.499503 0.0472584 0.0523321 0.704801 -3.31118 -0.187906 0.273618 -0.284817 
418 1 0.449865 0.0543208 0.101245 0.989108 -3.31634 -0.068755 -0.69861 -0.116127 
461 1 0.498636 0.0995364 0.0978834 0.671096 -3.32024 0.0539188 0.66054 0.205217 
23 1 0.550791 0.00115338 0.0504249 0.309574 -3.34943 0.121728 -0.0304974 -0.0683982 
22 1 0.549699 0.0496189 -0.000941135 0.270163 -3.29803 0.224182 -0.24572 0.0694676 
18 1 0.449883 0.0477889 0.000895715 0.409745 -3.39371 -0.133111 0.0885273 -0.29226 
21 1 0.499187 0.000690107 0.00236511 0.207157 -3.32833 0.0812283 -0.154978 -0.0324663 
28 1 0.598377 0.0528146 0.0529262 0.695525 -3.3146 0.121573 -0.425963 -0.630578 
67 1 0.648929 0.101309 0.0539008 0.75738 -3.32674 0.172105 0.153862 -0.435686 
26 1 0.654546 0.049105 -0.000527238 1.37166 -3.29653 -0.985812 0.116182 0.204679 
27 1 0.649381 0.00105998 0.0550058 0.812876 -3.32643 0.0914633 0.224764 -0.72311 
32 1 0.698681 0.0529427 0.0512757 0.609103 -3.32056 0.191744 -0.0700321 0.0292294 
71 1 0.749326 0.10317 0.0492631 0.515126 -3.3257 -0.242223 -0.387466 -0.077817 
430 1 0.754339 0.0526866 0.0950533 1.72802 -3.27283 -0.497103 -0.140153 0.410953 
30 1 0.749984 0.049399 -0.000685062 0.319743 -3.2873 0.00241377 0.157668 0.211015 
29 1 0.701619 0.00154338 0.00322895 0.603474 -3.26816 -0.413495 -0.529155 -0.563724 
69 1 0.698612 0.100328 0.00165319 0.401921 -3.32238 -0.050799 0.277135 0.000185768 
36 1 0.802875 0.0499537 0.050545 1.11942 -3.34036 0.292599 0.1857 -0.731843 
75 1 0.848747 0.106072 0.0461061 1.79498 -3.3255 -0.0998262 -0.808953 0.168762 
73 1 0.799012 0.0951029 -0.00466671 2.19497 -3.31691 0.180606 0.615624 0.451871 
34 1 0.853885 0.0540505 -0.00555054 1.94331 -3.24813 -0.49481 -0.780933 0.843549 
40 1 0.902374 0.0551713 0.0496147 1.06918 -3.29147 -0.907566 -0.413669 0.000584092 
79 1 0.95381 0.0970868 0.0481134 1.13957 -3.16799 -0.411525 1.01561 -0.140403 
38 1 0.951057 0.0530417 0.00101391 1.11297 -3.2504 -0.196175 -0.733097 -0.711972 
39 1 0.945181 0.0031622 0.0527103 1.65985 -3.31135 0.617262 -0.250735 -0.255664 
37 1 0.905317 0.00186944 -0.00169882 1.40798 -3.31502 -0.46052 0.0973834 0.203679 
43 1 0.04709 0.102569 0.0474754 0.993012 -3.30396 0.28943 -0.68418 0.220224 
48 1 0.0995006 0.151562 0.050049 0.845405 -3.27538 0.298881 -0.657464 -0.0150401 
83 1 0.0455293 0.196464 0.048458 1.12265 -3.28598 0.289337 0.371406 -0.125707 
42 1 0.0516254 0.145965 0.000950112 1.10869 -3.30739 -0.113273 0.255712 -0.794892 
44 1 -0.00261353 0.149857 0.0451872 0.710422 -3.31359 -0.207653 -0.00188923 0.211768 
52 1 0.202242 0.15026 0.0477404 0.21694 -3.30449 -0.276816 0.268135 0.0642904 
446 1 0.153134 0.148705 0.0981442 0.584586 -3.34258 -0.328741 0.0455054 -0.194264 
489 1 0.198538 0.201506 0.0996142 0.633116 -3.33383 0.238357 -0.474484 0.0384019 
46 1 0.147995 0.151182 -0.00324737 0.532214 -3.33595 0.25457 -0.383997 0.121622 
453 1 0.299644 0.0975941 0.101212 0.508477 -3.37067 0.0869221 0.365287 -0.27665 
56 1 0.300329 0.151349 0.0543613 1.20042 -3.26287 0.0630565 -0.442076 -0.655911 
450 1 0.249898 0.149644 0.101264 0.246618 -3.35596 -0.296953 -0.0300499 0.275226 
60 1 0.40268 0.150395 0.0476571 0.74118 -3.30546 -0.611183 0.128291 -0.201707 
454 1 0.352933 0.149287 0.0964087 0.968285 -3.31802 -0.025998 -0.263114 0.484583 
57 1 0.400064 0.101434 -0.00248207 0.343232 -3.27007 -0.129218 -0.27073 -0.00140827 
59 1 0.448951 0.101539 0.0447211 0.955788 -3.28345 0.278176 -0.541176 0.444766 
63 1 0.545088 0.0996265 0.0483816 0.492599 -3.31543 0.313298 0.207497 0.192384 
64 1 0.494449 0.151359 0.0461256 0.575424 -3.31531 0.339279 -0.156752 0.38737 
458 1 0.446154 0.149944 0.0986083 0.397349 -3.3283 0.302597 -0.0822421 0.141167 
462 1 0.547683 0.152781 0.098535 0.245967 -3.40053 -0.127545 -0.194134 0.0682008 
501 1 0.493344 0.200768 0.0987987 0.744849 -3.3199 0.833833 -0.185802 0.0191801 
58 1 0.449085 0.147806 -0.00463531 0.556296 -3.29569 0.313945 0.363758 0.0151667 
68 1 0.594435 0.149708 0.046702 0.71348 -3.30375 0.245252 -0.106604 0.48315 
107 1 0.645518 0.202775 0.0509409 0.531951 -3.29922 0.623643 -0.486694 0.111142 
65 1 0.598451 0.097507 0.000717643 0.697449 -3.33713 -0.0685668 0.0441842 -0.0557221 
66 1 0.643827 0.149243 0.000445755 1.13458 -3.28442 0.67241 -0.076827 0.19877 
72 1 0.697243 0.153521 0.049418 0.674358 -3.38642 0.0527066 -0.25243 0.100519 
111 1 0.749452 0.202049 0.047846 0.417601 -3.30822 0.00398629 -0.0115163 0.460739 
70 1 0.751617 0.146359 -0.000893815 1.39278 -3.30357 -0.179583 0.32932 0.00469304 
76 1 0.795737 0.151881 0.0493535 0.964166 -3.2961 0.444146 0.320813 0.160555 
115 1 0.853476 0.198471 0.0501379 0.697203 -3.36188 -0.347147 0.0725304 0.103759 
513 1 0.802509 0.202385 0.101322 0.775973 -3.32584 -0.503307 -0.354414 -0.608058 
74 1 0.845116 0.151847 -0.000109082 1.08984 -3.31842 0.203191 -0.234189 0.00942691 
80 1 0.90327 0.146713 0.0494962 1.22058 -3.26558 -0.438336 0.233572 0.0266997 
119 1 0.948418 0.200363 0.0508731 0.556631 -3.37196 0.263775 0.113043 -0.201104 
478 1 0.950562 0.150541 0.0977735 0.55099 -3.23655 0.610407 0.0624595 0.0731653 
117 1 0.898307 0.200409 -0.000263983 0.286734 -3.23222 0.00659537 -0.112008 0.139976 
485 1 0.0986393 0.19929 0.09519 0.613284 -3.33577 0.257243 0.212471 0.256362 
88 1 0.100024 0.250336 0.0453789 0.62801 -3.32383 -0.458576 -0.268701 0.503259 
482 1 0.04766 0.249929 0.0947068 1.38662 -3.2877 0.752761 -0.00130439 0.933733 
525 1 0.105219 0.295528 0.0982674 1.97895 -3.31121 -0.498368 0.518338 0.334739 
84 1 0.00375703 0.249787 0.0491407 0.719105 -3.22108 -0.96734 0.14079 -0.237956 
125 1 0.100006 0.300179 0.00101841 0.31435 -3.31631 -0.114502 0.212566 -0.284131 
82 1 0.0457643 0.248563 -0.000277335 1.22919 -3.28124 0.619573 0.0504599 -0.327909 
87 1 0.149116 0.197717 0.0453999 0.752323 -3.302 0.490912 0.273253 0.534384 
92 1 0.203902 0.248516 0.0491697 0.690862 -3.31522 -0.448195 -0.0944019 -0.183206 
86 1 0.148876 0.25042 0.000364898 0.30112 -3.30341 0.433853 -5.70651e-06 -0.0808711 
91 1 0.252497 0.197744 0.0514914 0.625956 -3.31477 -0.270953 0.145931 -0.243118 
493 1 0.30371 0.198266 0.10252 1.10239 -3.23763 -0.896309 0.073022 0.0713721 
93 1 0.301338 0.200583 -0.000387089 0.24276 -3.33985 -0.163101 -0.0955372 0.104048 
96 1 0.2998 0.248598 0.0468379 0.608187 -3.30008 0.140755 0.274001 0.294607 
490 1 0.253044 0.246898 0.0972258 0.883954 -3.32724 -0.338385 0.203779 0.56389 
95 1 0.348275 0.202215 0.055143 1.68039 -3.2736 0.465596 -0.188153 -0.880084 
497 1 0.399707 0.202173 0.100685 0.408917 -3.33626 -0.0285926 0.030714 0.0891301 
100 1 0.397465 0.25138 0.0495604 0.25343 -3.32735 0.127388 0.000190567 0.301558 
494 1 0.34739 0.252609 0.101395 0.600434 -3.33998 0.0838026 -0.166965 -0.237807 
537 1 0.397498 0.302012 0.102049 0.705487 -3.32023 0.206587 -0.294611 -0.348728 
99 1 0.445643 0.201001 0.0492442 0.48224 -3.24746 0.175619 0.105515 -0.11575 
103 1 0.54687 0.198969 0.0459623 0.611946 -3.28544 0.0677361 0.091693 0.509244 
104 1 0.498254 0.246554 0.0461906 1.20573 -3.34732 -0.0974878 0.553316 0.284961 
143 1 0.548298 0.303601 0.0520835 1.03239 -3.16608 1.06327 -0.502617 -0.744178 
498 1 0.450741 0.250855 0.100046 0.586796 -3.3549 -0.401335 0.332349 -0.0712802 
101 1 0.496756 0.198871 -0.00133563 0.381276 -3.28736 -0.126505 0.162781 -0.2231 
102 1 0.550695 0.248684 0.000674796 0.567019 -3.35445 -0.376713 0.21619 -0.114569 
105 1 0.600994 0.200404 0.00119439 0.573659 -3.2645 -0.707988 0.123223 -0.274707 
108 1 0.597482 0.249943 0.0514034 0.2759 -3.26892 -0.164307 0.394355 -0.315785 
147 1 0.644321 0.300937 0.053264 0.913948 -3.30706 0.727387 -0.500142 -0.065624 
145 1 0.597652 0.299978 0.0011771 0.252881 -3.3363 -0.113567 0.0136398 0.0775429 
106 1 0.651018 0.250049 0.0027341 0.481263 -3.32769 -0.108798 0.206007 -0.129249 
509 1 0.700459 0.199944 0.100779 0.567501 -3.31852 -0.592309 0.314946 -0.133875 
110 1 0.749831 0.248894 -0.00190292 0.262694 -3.3168 -0.265799 0.417818 0.246438 
112 1 0.69877 0.251098 0.0515398 0.242943 -3.35998 0.0391826 0.146424 -0.0130575 
151 1 0.754652 0.297602 0.0504989 0.89495 -3.34826 -0.522992 0.157991 0.110468 
116 1 0.802548 0.250118 0.0479662 0.434017 -3.34736 0.0506116 -0.284901 0.309751 
155 1 0.849871 0.302217 0.047552 0.597765 -3.30909 0.135228 -0.34861 0.213469 
114 1 0.853991 0.248719 -0.000549494 0.757664 -3.29695 -0.697866 0.252786 -0.0294054 
153 1 0.803465 0.298039 -0.000673818 0.649663 -3.31717 -0.405943 0.177384 -0.244934 
517 1 0.901219 0.197882 0.101342 0.461539 -3.33064 -0.229014 0.36135 -0.132398 
521 1 1.00206 0.301528 0.0996903 0.386922 -3.26409 -0.501479 -0.296792 -0.43882 
120 1 0.900238 0.251849 0.0500715 0.431383 -3.30732 -0.0641082 -0.291443 0.00549376 
518 1 0.954284 0.251053 0.0983853 0.665211 -3.34928 -0.127294 -0.132796 0.220726 
557 1 0.898726 0.298389 0.100391 0.61159 -3.32553 0.0209896 0.219034 -0.0537527 
118 1 0.951757 0.248656 0.00117106 0.662218 -3.33839 -0.0205854 0.117721 -0.0894668 
123 1 0.0518665 0.303284 0.0497266 1.08632 -3.33062 -0.196621 -0.360225 0.0257625 
128 1 0.100712 0.351217 0.0516915 0.329089 -3.32985 0.0739321 0.0210256 -0.0920901 
163 1 0.04977 0.404321 0.0506488 0.898152 -3.33434 -0.263475 -0.707278 -0.16646 
522 1 0.0501607 0.346848 0.100361 0.745787 -3.29528 0.226041 0.734519 -0.227286 
122 1 0.0485472 0.348629 0.000409008 0.581778 -3.30101 0.158994 0.416812 -0.133367 
127 1 0.150876 0.299015 0.0494123 0.302254 -3.31643 0.230666 0.284949 -0.283436 
529 1 0.19857 0.297709 0.0991577 0.497249 -3.32805 0.581777 0.183931 -0.19357 
132 1 0.199119 0.350914 0.0472619 0.329624 -3.38248 0.165325 -0.0665355 0.397283 
167 1 0.148625 0.401481 0.0539581 0.894954 -3.23948 -0.547493 -0.553521 -0.892062 
131 1 0.248866 0.299078 0.0466753 0.266108 -3.29918 0.124968 0.405858 0.100787 
533 1 0.2973 0.299203 0.0942841 1.21605 -3.30396 0.355691 0.162734 0.477605 
136 1 0.300565 0.351017 0.0469191 0.536367 -3.37734 -0.16792 -0.127269 0.00851422 
171 1 0.253182 0.403463 0.0509303 1.3126 -3.39139 -0.129148 -0.333256 -0.13537 
530 1 0.252096 0.349403 0.0977407 0.589513 -3.33594 -0.646315 -0.0556128 -0.232306 
130 1 0.248828 0.352441 -0.00376188 0.654921 -3.29792 0.0771717 -0.253673 0.747194 
135 1 0.349634 0.301311 0.0484892 0.447831 -3.28023 -0.142387 -0.349779 0.110748 
137 1 0.395763 0.295947 -0.00451747 1.16954 -3.27663 0.27351 0.622107 0.275134 
140 1 0.395695 0.347461 0.0509808 0.830944 -3.32467 0.324043 0.707578 -0.0673202 
175 1 0.347389 0.400162 0.0518039 0.430512 -3.34074 0.194691 -0.062281 -0.204356 
534 1 0.347244 0.352458 0.103799 1.35102 -3.24062 0.31194 -0.850283 -0.428287 
139 1 0.445684 0.300358 0.0485851 0.71947 -3.37109 0.264643 -0.175565 0.0583866 
541 1 0.502795 0.29887 0.0939478 2.67833 -3.17861 -1.20958 0.1693 1.03742 
144 1 0.499528 0.348072 0.0469721 1.17281 -3.24741 -0.548257 0.687513 0.00183429 
179 1 0.450542 0.398717 0.0475753 0.639921 -3.38608 -0.34011 0.113598 0.0755965 
542 1 0.540915 0.354075 0.101886 3.75187 -3.21728 1.34608 -0.611391 -0.251049 
148 1 0.600166 0.348404 0.0524675 1.0477 -3.26951 -0.678869 0.688672 -0.262808 
546 1 0.648714 0.350451 0.0975809 0.518768 -3.28222 0.308063 -0.177783 0.585736 
149 1 0.698584 0.300017 0.000629542 0.258139 -3.35899 -0.022439 -0.079825 0.181924 
152 1 0.697432 0.348236 0.0492852 0.488655 -3.35276 0.237688 0.0531331 -0.0652266 
191 1 0.748788 0.399855 0.0471936 0.318335 -3.32884 -0.182315 0.0223344 0.114106 
150 1 0.749489 0.346231 0.0012865 0.654025 -3.34701 -0.165035 0.143579 -0.358902 
156 1 0.799197 0.348726 0.0499678 0.593782 -3.25384 -0.0551583 -0.0619823 -0.123503 
195 1 0.852298 0.395375 0.0503258 0.775832 -3.31268 -0.132477 0.642256 -0.193208 
154 1 0.850159 0.353308 -0.00400988 1.42437 -3.30208 0.254759 -0.645885 0.257114 
121 1 1.00181 0.298818 -0.00179339 0.414075 -3.34407 -0.294702 0.115843 0.109113 
159 1 0.948694 0.298645 0.0483766 0.466536 -3.35083 0.477971 0.23246 0.0247479 
124 1 0.99907 0.352343 0.0464915 0.745404 -3.33932 0.143205 -0.228993 0.461585 
160 1 0.900813 0.347636 0.0486056 0.432531 -3.3223 0.242395 0.236629 -0.105332 
558 1 0.950888 0.348013 0.0972166 0.503757 -3.32722 -0.0183822 0.0311072 0.151604 
161 1 0.997088 0.40321 -0.00147856 0.712318 -3.34458 0.536993 -0.0490648 0.0975514 
158 1 0.952007 0.348403 -0.00296693 0.494853 -3.31881 -0.119897 0.205613 0.16519 
165 1 0.0980809 0.398213 0.000987898 0.593836 -3.36065 0.0417099 0.374882 0.0719453 
168 1 0.0973806 0.452705 0.0508208 0.445133 -3.29133 0.0287421 -0.118075 -0.0962902 
203 1 0.0484536 0.504407 0.0535062 1.23296 -3.29024 -0.0395626 -0.0636668 -0.438465 
162 1 0.0499177 0.454822 0.00089294 0.54861 -3.35367 -9.58735e-05 -0.236051 -0.25763 
172 1 0.194459 0.447061 0.0494244 1.36693 -3.26214 0.866045 0.560067 -0.0393199 
207 1 0.147943 0.500537 0.055476 1.20889 -3.26941 0.193465 0.0947331 -0.631849 
566 1 0.147811 0.450211 0.0986821 0.501287 -3.27384 0.0671874 -0.130624 0.580924 
609 1 0.198743 0.496073 0.102886 0.578205 -3.32054 0.244075 0.46041 -0.0800958 
209 1 0.196065 0.499457 0.00327289 0.801584 -3.37855 0.156028 -0.00447177 -0.225195 
573 1 0.301026 0.396914 0.102594 0.91322 -3.17683 -0.849145 0.804138 -0.591613 
176 1 0.302859 0.453542 0.049174 1.96929 -3.22439 -0.23783 -0.636404 0.632119 
570 1 0.24855 0.44876 0.102615 0.566942 -3.33811 0.537819 -0.115815 -0.335165 
613 1 0.301037 0.49518 0.101914 1.12876 -3.33333 -0.238585 0.386708 0.107222 
213 1 0.299175 0.501955 0.00571806 0.906065 -3.32652 0.219086 -0.0881 -0.453369 
180 1 0.398498 0.451162 0.053009 0.579253 -3.32186 0.237965 -0.721889 -0.146188 
574 1 0.34795 0.444714 0.103828 1.20545 -3.30059 0.225527 0.488799 -0.196894 
174 1 0.34968 0.448091 0.00351801 0.733851 -3.27967 0.187337 0.456169 -0.551223 
177 1 0.396212 0.39838 -0.000747814 0.446863 -3.33173 0.242016 0.117775 0.274976 
217 1 0.39938 0.501844 0.000725634 0.4873 -3.31943 0.050008 -0.165076 -0.437067 
183 1 0.546299 0.39975 0.0484473 0.788505 -3.34857 0.570975 0.00561057 -0.389112 
184 1 0.495455 0.454144 0.0501498 1.56285 -3.35467 0.369991 -0.329562 -0.303271 
219 1 0.443561 0.50014 0.0496345 1.02323 -3.29565 0.518794 0.236519 0.338271 
578 1 0.449256 0.447955 0.10175 0.325648 -3.30517 -0.0777017 0.0216598 -0.146776 
582 1 0.552334 0.447151 0.0997712 0.483341 -3.32337 -0.157107 0.213807 0.030796 
187 1 0.650122 0.403021 0.0508856 0.910943 -3.25671 0.497556 -0.525309 -0.495565 
185 1 0.60513 0.400035 0.00180502 1.86917 -3.29211 -0.740766 0.13131 -0.39522 
188 1 0.599448 0.449292 0.0462577 0.488097 -3.28147 -0.396477 -0.0371677 0.0649046 
227 1 0.650116 0.493858 0.0462866 1.13114 -3.22905 -0.281262 1.04607 0.136178 
192 1 0.699776 0.451329 0.0459816 0.386998 -3.30105 0.568008 -0.596055 -0.0777578 
590 1 0.751955 0.451966 0.0959256 0.723684 -3.3199 0.142063 -0.38691 -0.0214425 
229 1 0.701277 0.499287 -0.00432996 0.382028 -3.31126 0.258223 0.117231 0.377336 
193 1 0.799506 0.394716 0.00258166 1.82421 -3.27385 -0.081604 0.725452 -0.431209 
196 1 0.802921 0.449663 0.049023 0.32503 -3.35336 0.0280856 -0.149367 0.136028 
194 1 0.852453 0.449314 0.00238978 0.496595 -3.33175 -0.0893039 -0.2033 -0.330327 
199 1 0.952133 0.402132 0.0486712 0.400234 -3.29804 -0.0311303 0.0382167 0.374142 
164 1 1.00368 0.454155 0.0509582 1.5695 -3.25262 -0.914755 -0.156486 -0.417468 
200 1 0.901593 0.451649 0.0515367 0.517379 -3.34967 -0.0502003 -0.0185993 0.0278903 
598 1 0.952177 0.44972 0.102621 0.694569 -3.32467 -0.215674 0.330011 -0.387109 
198 1 0.947076 0.452422 -0.00324307 0.912826 -3.28565 0.311096 0.0444076 0.499922 
208 1 0.0989963 0.550387 0.0508244 0.290343 -3.30739 0.245998 0.127966 -0.0328081 
202 1 0.0485046 0.546805 -0.00201505 1.09439 -3.32981 -0.0231065 0.229557 0.359583 
245 1 0.098773 0.599319 0.000152387 0.331439 -3.3325 -0.287776 -0.114323 0.143741 
205 1 0.101361 0.503629 0.00235695 0.903034 -3.33665 0.0462914 -0.507407 -0.114386 
201 1 -0.00403311 0.499758 -0.00309907 0.980016 -3.31458 0.435934 0.224608 0.388676 
212 1 0.20095 0.548171 0.0520053 0.364116 -3.36166 0.00250359 -0.0332739 -0.125826 
206 1 0.150257 0.552234 -0.00395529 1.32587 -3.32217 0.579603 -0.0260385 0.632383 
211 1 0.248966 0.494643 0.0540754 1.07965 -3.31397 -0.352192 0.458398 -0.108265 
216 1 0.296844 0.547889 0.0548692 0.833219 -3.3424 -0.0344322 0.203575 -0.255765 
610 1 0.249799 0.549062 0.104659 0.431007 -3.28735 -0.157947 -0.0469652 -0.583213 
210 1 0.247046 0.547805 -0.00029932 0.620625 -3.30244 -0.19512 0.268272 0.441884 
251 1 0.247977 0.599523 0.0496694 0.43518 -3.34713 0.159861 -0.0362166 0.0968922 
215 1 0.353499 0.499326 0.0548521 1.14344 -3.25498 -0.30793 0.26712 -0.340422 
220 1 0.397586 0.553313 0.0516113 1.08203 -3.18809 0.313223 -0.551475 0.311017 
617 1 0.397957 0.498105 0.105154 0.940837 -3.29614 0.0489232 0.12114 -0.350053 
214 1 0.351492 0.548694 0.00567714 0.989134 -3.28439 -0.577278 0.169678 -0.549115 
255 1 0.34875 0.602265 0.0516221 0.558685 -3.30344 -0.209202 -0.332913 0.0812415 
223 1 0.552052 0.500354 0.0483038 0.499336 -3.40572 -0.364285 -0.0487942 -0.0939007 
224 1 0.496268 0.550281 0.0517948 0.528905 -3.34795 0.441322 -0.352712 -0.227068 
622 1 0.550756 0.548117 0.10128 0.343623 -3.31198 0.0990362 -0.271909 -0.632953 
218 1 0.449365 0.551777 -0.00168095 0.59936 -3.333 -0.293583 -0.252751 0.0814759 
263 1 0.55153 0.596486 0.0520056 0.228843 -3.34097 0.0223506 0.0878043 -0.0496105 
228 1 0.605994 0.546531 0.0528178 1.4773 -3.36666 -0.362417 0.110041 -0.39274 
626 1 0.65486 0.546141 0.100282 0.641835 -3.27384 -0.383035 0.191129 -0.31744 
225 1 0.601011 0.501569 -0.00625652 1.49794 -3.28259 -0.140651 -0.264942 0.729958 
267 1 0.654725 0.597601 0.0497281 0.517829 -3.31527 -0.168367 -0.317318 -0.203272 
230 1 0.754953 0.549708 -0.0013196 0.887953 -3.30917 -0.532767 -0.431242 0.428886 
231 1 0.750864 0.497639 0.0473505 0.234384 -3.35159 0.205996 0.201709 -0.143277 
232 1 0.699502 0.544709 0.0471576 0.786858 -3.30107 -0.127664 0.182477 -0.221516 
630 1 0.743348 0.547516 0.0980629 1.77259 -3.3274 0.585454 0.135944 0.0744367 
271 1 0.745582 0.597747 0.0514218 1.02947 -3.36587 0.42614 -0.0878094 -0.233084 
269 1 0.699998 0.594203 -0.00274975 1.22779 -3.33343 0.231762 0.580028 0.196224 
235 1 0.852837 0.50374 0.0519864 1.01482 -3.30265 0.0204176 -0.61321 0.138347 
236 1 0.80087 0.548104 0.0512155 0.68273 -3.3189 -0.473807 0.329797 0.0408418 
633 1 0.80285 0.501292 0.0993392 0.873886 -3.30985 -0.0377486 -0.650568 -0.291556 
634 1 0.850867 0.552654 0.100403 0.663187 -3.29624 0.383842 -0.427406 0.0435858 
204 1 0.99778 0.552823 0.0500494 0.580063 -3.33584 0.283711 -0.32096 -0.0508288 
239 1 0.949832 0.502412 0.0480314 0.604054 -3.36589 -0.261298 -0.132105 0.255195 
240 1 0.898701 0.553471 0.0493801 0.622248 -3.30021 0.272402 -0.201308 0.15643 
637 1 0.898491 0.495914 0.106202 2.20538 -3.3115 -0.0759436 0.533807 -0.813492 
638 1 0.946301 0.548297 0.102456 0.557366 -3.34763 0.0614125 0.0475152 -0.234046 
279 1 0.949428 0.598731 0.0524269 0.32891 -3.31899 -0.128704 0.35187 -0.274689 
243 1 0.0516976 0.599179 0.0513319 0.496528 -3.35046 -0.0880996 0.0445995 -0.0466905 
248 1 0.0984116 0.654313 0.0515802 1.5602 -3.27057 -0.0504139 -1.07291 0.100882 
642 1 0.0482534 0.648336 0.100465 0.216768 -3.26734 -0.115703 0.0131012 0.0278196 
242 1 0.0441851 0.651096 0.000557404 1.28862 -3.29646 0.622293 0.0673501 0.0752349 
283 1 0.048176 0.70004 0.0522025 0.349944 -3.33668 -0.111881 0.209901 -0.216813 
285 1 0.100255 0.694834 0.0036785 1.15929 -3.31041 -0.219561 0.9883 -0.450169 
247 1 0.149326 0.598805 0.0519701 0.620301 -3.33375 -0.174606 -0.141024 -0.467721 
252 1 0.194359 0.648204 0.0450097 1.75007 -3.24194 0.423131 0.0569589 0.64103 
649 1 0.200579 0.600007 0.098701 0.36636 -3.31665 -0.00692718 -0.0899652 0.400374 
289 1 0.193469 0.698698 -0.00207397 1.68316 -3.27923 0.442132 -0.283117 0.283971 
250 1 0.250339 0.649528 0.00392392 1.45931 -3.31497 0.229293 0.147944 -0.389919 
256 1 0.30074 0.650259 0.0516357 0.653054 -3.34655 -0.358577 0.0905694 0.0737679 
650 1 0.246126 0.650416 0.0997133 0.340407 -3.32657 0.0606516 -0.142381 -0.114647 
260 1 0.40061 0.646294 0.0548969 1.03686 -3.33064 0.14093 0.485996 -0.307307 
697 1 0.398503 0.698045 0.100109 0.829448 -3.27974 0.63541 0.320973 0.143822 
259 1 0.445666 0.59575 0.0534175 1.52188 -3.22314 0.677144 0.566719 -0.151591 
264 1 0.497415 0.643186 0.0539144 2.06055 -3.31397 0.258779 0.569562 -0.770813 
658 1 0.453577 0.652645 0.104513 1.69919 -3.2824 -0.529759 -0.675462 -0.29803 
661 1 0.50089 0.599974 0.0990083 0.853353 -3.2371 -0.250473 -0.506213 0.246745 
662 1 0.551107 0.647197 0.102493 0.334521 -3.29593 0.309673 0.0196432 -0.507115 
299 1 0.453639 0.695863 0.0492644 1.34156 -3.2619 -0.549945 0.140351 0.665248 
701 1 0.501027 0.698076 0.0990053 0.702804 -3.24534 0.390929 0.321412 0.0631903 
258 1 0.449444 0.649649 -0.00290764 1.42538 -3.31947 0.0984669 -0.20923 0.443967 
301 1 0.497901 0.699793 0.00227696 0.531111 -3.25131 0.644249 -0.0500298 -0.276367 
268 1 0.605518 0.64456 0.05266 1.1092 -3.29195 -0.914008 0.208072 -0.22352 
666 1 0.652986 0.648796 0.0995115 0.42058 -3.27822 0.0732792 0.0206354 0.325969 
266 1 0.650337 0.649393 0.00126462 0.438864 -3.29275 0.119968 -0.435237 -0.262828 
265 1 0.598263 0.59612 0.00230948 0.943126 -3.28982 0.755172 0.353622 0.407162 
272 1 0.700754 0.647772 0.0471213 0.587988 -3.29632 0.190624 0.371334 0.207214 
270 1 0.750791 0.65008 -0.00197554 0.544725 -3.31025 -0.370022 0.28159 0.424654 
709 1 0.700156 0.700756 0.101152 0.365044 -3.34273 0.0112535 0.100641 -0.595377 
275 1 0.849468 0.600739 0.0493962 0.43424 -3.31578 -0.181123 0.0657456 0.0409145 
276 1 0.795068 0.652354 0.0528782 1.55851 -3.28825 0.172968 -0.37151 -0.643581 
674 1 0.848155 0.64769 0.0991967 0.639922 -3.23257 -0.0140121 0.0503147 0.491371 
274 1 0.84689 0.649759 0.00346462 0.754395 -3.37177 0.0191523 0.0941439 -0.164412 
315 1 0.848267 0.696513 0.0513457 0.787274 -3.26808 0.503285 0.217547 -0.218256 
244 1 1.00168 0.64842 0.0521594 0.409837 -3.29879 -0.347275 0.113245 -0.173083 
280 1 0.898384 0.648834 0.0552083 0.758977 -3.29964 0.406409 -0.104274 -0.664928 
678 1 0.952434 0.648787 0.0996403 0.777214 -3.31059 -0.386229 0.0660263 0.31156 
277 1 0.899284 0.602901 0.000649362 0.368192 -3.32883 0.0605168 -0.162478 0.286843 
319 1 0.946031 0.698009 0.0503322 1.00436 -3.32651 0.493371 0.0905693 0.382717 
241 1 1.00365 0.599893 -0.0002167 0.952751 -3.29263 -0.510377 -0.35085 0.189886 
288 1 0.0993622 0.748439 0.0528933 0.165847 -3.32202 0.00955471 -0.250651 -0.178834 
284 1 0.00190938 0.753307 0.0498552 1.03895 -3.24123 0.00842426 -0.555653 0.536622 
325 1 0.100013 0.79967 0.00133874 0.237781 -3.31006 0.0259342 0.00958586 -0.189525 
287 1 0.150245 0.697651 0.0529514 0.661242 -3.30211 0.0247202 0.513653 -0.111446 
292 1 0.200513 0.748821 0.0485069 0.899596 -3.26512 -0.224905 0.55223 0.756546 
286 1 0.151765 0.749524 0.00424024 0.899392 -3.30487 -0.698153 0.0121653 -0.475158 
291 1 0.240947 0.698574 0.0478717 2.43514 -3.28459 0.925093 -0.454447 0.289073 
296 1 0.295872 0.749433 0.0479378 1.26234 -3.29354 0.740768 -0.0560104 0.118318 
693 1 0.296443 0.696132 0.102709 1.1551 -3.33156 0.206469 0.462553 -0.148912 
333 1 0.29485 0.79848 -0.00173394 1.58269 -3.29241 0.747845 0.078086 0.556588 
293 1 0.301118 0.70101 0.00308086 0.770227 -3.34404 -0.155766 -0.227323 -0.0513792 
295 1 0.350442 0.699547 0.0562395 0.911096 -3.31539 -0.429421 0.179747 -0.530385 
300 1 0.403216 0.751203 0.0516259 0.847609 -3.34196 -0.133315 -0.574012 0.32525 
694 1 0.347457 0.75008 0.102591 0.674897 -3.32531 0.184946 -0.454582 -0.485003 
294 1 0.351792 0.750678 0.00397246 0.698031 -3.31936 -0.180482 -0.389696 -0.284209 
335 1 0.349864 0.799129 0.0470783 0.84715 -3.33288 -0.381816 0.124988 0.540702 
303 1 0.551365 0.697392 0.0522506 0.22899 -3.37603 -0.00129097 -0.0228851 -0.0928511 
304 1 0.495691 0.750235 0.0516751 1.11605 -3.31164 0.614857 -0.375675 -0.205419 
702 1 0.549638 0.745617 0.105327 1.8563 -3.32633 0.285017 0.443363 -0.505299 
298 1 0.44867 0.747857 -0.000837834 0.738701 -3.31217 0.203337 0.13116 0.121024 
339 1 0.451564 0.800095 0.050182 0.351089 -3.27119 0.275522 0.177867 0.049395 
343 1 0.54155 0.800712 0.0489704 2.66835 -3.32498 0.774273 -0.157439 -0.221266 
341 1 0.501085 0.803473 -0.00704348 3.14744 -3.26209 -0.238137 -0.527657 0.936937 
307 1 0.648511 0.696553 0.0507737 0.499723 -3.30499 0.239031 0.574685 0.276 
308 1 0.597789 0.751977 0.0527209 0.891985 -3.34649 -0.110357 -0.171346 -0.0578314 
705 1 0.600315 0.69454 0.1042 0.993824 -3.29517 0.136769 0.66198 -0.454368 
347 1 0.651523 0.799793 0.0483892 0.60573 -3.34075 0.128393 0.0681339 0.329695 
745 1 0.599732 0.807768 0.0982282 2.46344 -3.29813 0.0799127 -0.555225 -0.270016 
311 1 0.748834 0.70233 0.04924 0.776392 -3.33253 0.115585 -0.286807 0.236076 
312 1 0.698232 0.74783 0.0470087 1.04294 -3.34205 0.0867591 0.301448 0.429502 
309 1 0.701197 0.700193 -0.00118412 0.287553 -3.32596 -0.348542 -0.0369068 0.165835 
316 1 0.80419 0.744175 0.0524189 2.37951 -3.31664 -0.250877 0.935258 0.0560226 
314 1 0.850845 0.750776 0.00119966 0.323626 -3.31388 -0.0410632 -0.159687 0.0674941 
320 1 0.898704 0.75072 0.0518134 0.386664 -3.33246 -0.193208 -0.269746 0.131852 
718 1 0.94966 0.746319 0.097423 1.29715 -3.365 -0.0664585 0.346761 0.355906 
281 1 0.995335 0.70119 0.00126921 0.912798 -3.30738 0.588323 -0.139298 0.154833 
323 1 0.0537577 0.797761 0.0518875 1.13542 -3.278 -0.323643 0.670598 -0.0243711 
328 1 0.100523 0.853152 0.049338 0.407302 -3.28778 -0.278269 -0.779042 0.00554932 
725 1 0.100172 0.801413 0.100038 0.262189 -3.33624 -0.00118885 0.140549 0.364423 
322 1 0.0500162 0.849756 -0.00803679 3.18298 -3.22544 0.113528 0.0904781 1.16378 
363 1 0.0564343 0.901507 0.0495509 1.50182 -3.30777 -0.731934 0.46747 -0.0884617 
327 1 0.146905 0.800279 0.0501649 0.769323 -3.29079 0.42342 0.0066004 0.349289 
332 1 0.202155 0.849594 0.0554072 1.46273 -3.34021 -0.360928 0.112147 -0.610882 
726 1 0.150531 0.85516 0.101155 1.01192 -3.35074 -0.237773 -0.589437 -0.21731 
367 1 0.146704 0.899773 0.0470173 1.45945 -3.30783 0.426974 0.311316 0.100101 
769 1 0.20163 0.901602 0.099784 0.64415 -3.2665 -0.365781 -0.518247 0.0173456 
331 1 0.251759 0.802706 0.0540647 1.89404 -3.28743 -0.238124 -0.35512 -0.39353 
336 1 0.301796 0.850319 0.0474431 0.658871 -3.33561 -0.0809788 -0.114249 0.297464 
730 1 0.253888 0.850211 0.0990958 0.641454 -3.26603 -0.448301 -0.0465123 0.0781972 
733 1 0.301356 0.798118 0.0999577 0.395144 -3.26809 -0.0692756 0.0827205 -0.117991 
330 1 0.248759 0.848042 -0.00319369 1.3555 -3.29112 0.161827 0.518396 0.685747 
340 1 0.401321 0.848692 0.0512867 0.281133 -3.35789 -0.0416305 0.413143 -0.0858344 
737 1 0.399286 0.798511 0.100329 0.258444 -3.32564 0.290935 -0.112173 -0.015756 
337 1 0.402716 0.79734 0.00516113 1.55787 -3.19003 -0.279164 0.384224 -0.66251 
344 1 0.496244 0.852004 0.0503499 0.487945 -3.25668 0.193391 -0.264723 -0.187037 
738 1 0.448822 0.849598 0.101559 0.320998 -3.32353 -0.0738651 -0.0794357 -0.130745 
741 1 0.499242 0.799605 0.100087 0.358575 -3.30785 0.170116 -0.0737444 0.418169 
342 1 0.550106 0.849963 0.000513819 0.549172 -3.3185 -0.147376 0.123156 0.00417002 
348 1 0.603286 0.853121 0.0472138 1.34476 -3.32334 -0.323298 -0.222533 0.548871 
346 1 0.650923 0.84935 -0.0014735 0.24296 -3.30761 -0.0663035 0.0795876 0.297905 
385 1 0.595514 0.900146 0.00277264 1.5847 -3.31055 0.53958 0.153108 -0.331705 
351 1 0.752389 0.797654 0.0512816 0.672673 -3.32517 -0.31158 0.0385047 -0.171601 
352 1 0.700594 0.849116 0.0514235 0.395905 -3.32959 -0.194169 -0.102229 -0.285901 
749 1 0.703121 0.800193 0.102403 0.812706 -3.31793 -0.66677 0.124217 -0.22813 
789 1 0.699787 0.900518 0.100932 0.149313 -3.29872 0.0656058 0.252745 0.163793 
355 1 0.85276 0.801997 0.0482518 1.28297 -3.28808 -0.341273 -0.27858 0.954344 
356 1 0.800309 0.84946 0.0492378 0.572475 -3.32533 0.248779 0.227817 0.382889 
754 1 0.846915 0.850473 0.101841 0.861202 -3.36017 0.404589 -0.0195479 -0.248004 
395 1 0.85379 0.901302 0.0531355 0.777462 -3.29745 -0.616478 -0.101806 -0.474563 
353 1 0.801462 0.800855 0.00505553 0.877032 -3.27367 -0.00225668 -0.153967 -0.373676 
324 1 1.00421 0.852832 0.0513058 0.487087 -3.37481 -0.0277343 -0.123583 0.0739674 
359 1 0.951961 0.800505 0.0510484 0.244285 -3.32371 0.0131896 0.374141 0.298732 