ITEM: TIMESTEP
4000
ITEM: NUMBER OF ATOMS
4000
ITEM: BOX BOUNDS pp pp pp
7.3792810016042276e-01 3.9762071899839007e+01
-3.9771344427819866e-01 4.0897713444277869e+01
-3.8501126766950600e-01 4.0885011267669263e+01
ITEM: ATOMS id type xs ys zs c_csym c_peratom fx fy fz 
4 1 -0.00284003 0.0467547 0.047625 1.47445 -3.32842 0.694229 0.346345 0.0849065 
8 1 0.102551 0.0503597 0.0447634 0.865612 -3.29947 -0.282395 -0.170611 0.678262 
43 1 0.0521268 0.0983153 0.0476363 0.684304 -3.29179 -0.0098133 -0.135535 0.314972 
402 1 0.055337 0.0473661 0.0988557 1.56208 -3.32729 -0.738305 0.2757 -0.404137 
445 1 0.0960714 0.0998084 0.100604 1.11461 -3.29995 0.432036 0.0257613 -0.145694 
441 1 0.00231605 0.10086 0.0953368 0.890371 -3.33547 0.0724924 -0.467672 0.169954 
3 1 0.0475383 -0.00256215 0.0480801 0.993657 -3.37419 0.278223 0.420319 0.107923 
401 1 0.00160726 0.000440861 0.100396 0.885453 -3.26678 -0.319861 -0.026996 -0.372582 
45 1 0.100649 0.103909 9.76143e-05 0.49493 -3.28546 -0.294518 -0.00949617 -0.172129 
5 1 0.10264 0.00228775 -0.000193657 0.640604 -3.312 0.294331 -0.621744 -0.0893812 
12 1 0.201511 0.0487959 0.0468228 0.71617 -3.34357 0.0230978 -0.109142 0.21284 
47 1 0.151694 0.0979149 0.0488074 0.370621 -3.32652 -0.147499 0.403984 -0.119271 
406 1 0.149275 0.0498734 0.0963222 0.891224 -3.32361 -0.0117349 -0.289162 0.246825 
449 1 0.197647 0.0945031 0.0990454 0.776969 -3.31694 0.647181 0.469219 0.236071 
7 1 0.151916 -0.00391564 0.0500802 1.01035 -3.23369 -0.498322 0.793723 0.235095 
409 1 0.201861 -0.000548542 0.105587 1.64374 -3.32305 -0.287271 -0.0256549 -0.924641 
6 1 0.148239 0.0533801 -0.00376331 1.32439 -3.27957 0.48405 -0.515083 0.116605 
16 1 0.298175 0.0474786 0.0478755 0.582937 -3.2999 -0.0308563 0.294567 -0.0306163 
51 1 0.249716 0.101655 0.0497867 0.309643 -3.34325 0.316249 -0.307188 0.29175 
410 1 0.252625 0.0492824 0.0977654 1.38428 -3.39207 -0.192692 0.0365228 0.337323 
453 1 0.298983 0.103668 0.102622 1.04995 -3.31804 -0.165437 -0.341637 -0.349996 
11 1 0.250013 -0.00398899 0.0519861 0.647667 -3.32136 -0.286364 0.259174 -0.138914 
20 1 0.400207 0.0484353 0.0494819 0.530624 -3.30842 -0.541371 -0.0178617 -0.30351 
55 1 0.351588 0.0990438 0.0498077 0.932046 -3.31516 -0.67749 0.000116647 -0.274933 
414 1 0.343392 0.0507146 0.0972551 1.65966 -3.33614 0.423258 -0.168921 0.108794 
457 1 0.396871 0.0982192 0.0976138 0.508598 -3.31983 0.25682 -0.0242281 0.359834 
417 1 0.394187 -0.000980659 0.10336 0.974114 -3.2881 0.330103 0.308688 -0.610234 
15 1 0.349208 -0.000835284 0.050507 0.270055 -3.37637 0.11335 0.0251464 0.00501407 
57 1 0.393983 0.102011 -0.00389584 2.08825 -3.32008 0.254891 -0.204265 0.323995 
17 1 0.399031 -0.000721655 0.00253101 0.28699 -3.33294 -0.00568403 0.193982 -0.0864726 
24 1 0.501404 0.0494462 0.0500055 0.249006 -3.37701 -0.0129804 -0.176146 -0.0746675 
59 1 0.447978 0.0975947 0.0464072 0.670158 -3.34369 -0.101446 0.542051 -0.00112286 
63 1 0.550081 0.10063 0.0474686 0.39153 -3.31685 0.012737 -0.107011 0.44268 
418 1 0.447654 0.048958 0.0957708 0.664444 -3.31039 0.185983 -0.124253 0.596606 
422 1 0.552312 0.0500981 0.0995584 0.726246 -3.26572 -1.05424 -0.113316 0.095973 
461 1 0.495717 0.0985153 0.0975225 0.627039 -3.33112 0.42665 -0.0373341 0.00186075 
421 1 0.501176 -0.00184034 0.0998638 0.415724 -3.32371 -0.139881 0.595335 0.220266 
19 1 0.44799 -0.00179892 0.0506806 0.300434 -3.34539 0.276328 -0.101808 -0.00112422 
28 1 0.600441 0.0542846 0.0493198 0.986036 -3.29953 -0.0422155 -0.418781 0.156868 
67 1 0.651498 0.101084 0.052363 1.13991 -3.27647 -0.494564 -0.387077 -0.162819 
426 1 0.652643 0.0511609 0.102771 0.893229 -3.37218 -0.208336 0.138507 -0.390503 
465 1 0.597186 0.0962725 0.101661 1.49543 -3.31156 0.620764 0.808194 -0.0518789 
32 1 0.698163 0.046007 0.0458468 1.57972 -3.2964 0.576554 0.324528 0.776446 
71 1 0.750807 0.10065 0.0449794 0.842891 -3.31901 -0.315634 -0.672301 0.409851 
430 1 0.748876 0.0496467 0.097971 0.576466 -3.37476 0.295415 0.419564 -0.204362 
469 1 0.698697 0.106147 0.098026 1.47395 -3.28165 0.357161 -0.842666 0.385604 
31 1 0.754446 0.00152755 0.0466087 1.13351 -3.35674 -0.291998 -0.209723 0.0726935 
69 1 0.696501 0.0952126 -0.000253823 1.37622 -3.30601 0.414221 0.738669 -0.328085 
36 1 0.802693 0.048333 0.0463628 0.161642 -3.36845 -0.0867476 0.115312 0.150382 
75 1 0.854655 0.0955468 0.0455554 1.06655 -3.32438 -0.094404 -0.0387458 0.397462 
434 1 0.853209 0.0457032 0.0978881 0.70862 -3.347 -0.100228 0.375099 -0.13657 
473 1 0.802246 0.0991818 0.0985083 0.408952 -3.36201 -0.0297127 -0.499519 0.384479 
433 1 0.802019 -0.00180057 0.0993562 0.235193 -3.26599 -0.0929106 0.223876 -0.514583 
73 1 0.803471 0.0999223 -0.00444656 0.57128 -3.26026 -0.438512 -0.338403 0.543273 
40 1 0.905717 0.0449232 0.0420144 2.83854 -3.26034 -0.679596 0.310539 0.987484 
79 1 0.948608 0.0981143 0.0484986 0.838974 -3.28837 -0.0987188 0.212269 -0.0400486 
438 1 0.949448 0.0534413 0.0994195 1.41522 -3.32677 -0.532115 -0.322798 -0.349515 
477 1 0.896122 0.100317 0.100033 1.41 -3.33855 0.290552 -0.333469 -0.0980926 
77 1 0.903789 0.100354 -0.00439589 0.645732 -3.29327 0.413715 -0.455382 0.133795 
41 1 1.00237 0.1026 0.00569292 2.9704 -3.31142 -0.183158 -0.270722 -0.951897 
48 1 0.10018 0.149686 0.0509328 0.247002 -3.35468 0.248272 0.278704 -0.0391465 
83 1 0.0486411 0.198582 0.0504583 0.602094 -3.35706 0.474756 0.28902 0.0463919 
442 1 0.0494344 0.149718 0.0990513 0.193239 -3.32007 0.114217 0.0988547 0.137662 
481 1 -0.00101454 0.200073 0.103357 0.821275 -3.29888 0.233999 -0.0223722 -0.526865 
485 1 0.0991068 0.200093 0.101762 0.477805 -3.3479 -0.15399 -0.146718 -0.393751 
81 1 -0.00158906 0.202581 -0.000643156 0.445061 -3.27192 0.0812822 -0.462948 0.507211 
85 1 0.104529 0.203006 -0.00445613 1.39421 -3.29268 -0.335379 -0.426012 0.589998 
42 1 0.0526483 0.15344 0.00107994 0.495438 -3.35526 -0.167463 -0.08504 -0.291682 
52 1 0.200833 0.148264 0.0494961 0.38926 -3.33226 -0.527846 0.278982 0.399609 
87 1 0.152801 0.201582 0.0498751 0.381555 -3.35624 -0.0333027 -0.473668 -0.00142387 
446 1 0.148265 0.145423 0.099971 0.522335 -3.34469 0.16745 0.140501 -0.061181 
489 1 0.200361 0.198581 0.10154 0.206924 -3.28684 -0.0106803 0.0519212 -0.27437 
56 1 0.303225 0.151805 0.0527215 0.768931 -3.35047 -0.384358 -0.332794 -0.0275918 
91 1 0.249226 0.199172 0.0551721 0.806663 -3.29831 -0.138273 -0.0575517 -0.533176 
450 1 0.249428 0.150634 0.101718 0.325592 -3.31935 -0.00546517 -0.413617 0.0125917 
493 1 0.299363 0.199291 0.102373 0.39679 -3.30665 0.0383546 -0.071383 0.393958 
60 1 0.394743 0.150931 0.0525789 0.970567 -3.32858 0.722077 -0.170848 -0.0944407 
95 1 0.349004 0.201361 0.0542131 0.488094 -3.2061 -0.439958 0.0315873 -0.405605 
454 1 0.349706 0.148879 0.105468 1.2211 -3.28525 -0.0585742 0.227689 -0.420053 
497 1 0.39638 0.201916 0.0971296 1.11323 -3.28778 0.665997 -0.121569 0.802071 
54 1 0.3501 0.155815 0.00364253 1.84803 -3.32163 -0.0699543 -0.347688 -0.651588 
97 1 0.400191 0.203714 0.00695794 1.89481 -3.22603 -0.276004 -0.455438 -0.356047 
64 1 0.501726 0.146686 0.0489461 0.869649 -3.3275 -0.71747 0.207777 0.210557 
99 1 0.451778 0.200663 0.0509666 0.810278 -3.29566 -0.360986 -0.365614 0.322505 
103 1 0.553325 0.194379 0.0502407 1.53465 -3.34024 -0.289002 0.58376 0.120178 
458 1 0.447667 0.148669 0.100641 0.508889 -3.33904 0.0530873 0.0181053 -0.637633 
462 1 0.548989 0.148906 0.103925 1.04244 -3.3546 0.0708413 -0.189133 -0.548289 
501 1 0.499013 0.195214 0.0979053 0.992923 -3.31646 0.0853129 0.290109 0.423483 
58 1 0.44398 0.149767 -0.00101145 0.99247 -3.36687 0.31889 -0.262012 0.564264 
62 1 0.548914 0.149261 0.00119537 0.363255 -3.30759 0.233507 0.168793 -0.392273 
68 1 0.602969 0.148963 0.048741 0.822509 -3.29597 -0.401201 -0.162538 0.451367 
107 1 0.647985 0.200093 0.049503 0.494206 -3.32912 0.168341 -0.0224642 0.505403 
466 1 0.648172 0.151595 0.101592 0.571285 -3.29471 0.0541365 -0.00599921 -0.346317 
505 1 0.598874 0.2017 0.10726 2.11231 -3.25472 0.177422 -0.149714 -0.887421 
72 1 0.697044 0.148829 0.0461602 0.875787 -3.28667 0.386951 0.302311 0.201197 
111 1 0.750559 0.196602 0.0466661 0.771232 -3.31585 0.360996 0.22022 0.68724 
470 1 0.74833 0.14975 0.0954418 0.860171 -3.2997 0.291458 0.0543627 0.468572 
509 1 0.697732 0.200717 0.0994203 0.254009 -3.34542 0.263604 0.0246085 -0.330849 
74 1 0.855237 0.143457 -0.00231916 1.63383 -3.22533 -0.29988 1.21153 0.560364 
76 1 0.801609 0.142652 0.0519718 1.67362 -3.2996 0.392954 0.919194 -0.625457 
115 1 0.851374 0.196875 0.0530419 0.306936 -3.3726 -0.268574 0.19207 -0.0868963 
474 1 0.851552 0.150353 0.101521 0.542014 -3.29918 -0.344153 0.00245422 -0.0446733 
513 1 0.798794 0.196535 0.102041 0.82814 -3.31296 0.266459 0.17311 -0.443924 
113 1 0.802286 0.195066 0.00121966 0.455597 -3.36042 0.174442 0.0583071 0.0858779 
44 1 0.999629 0.152167 0.0493735 0.464856 -3.30957 -0.101861 -0.067614 -0.126134 
80 1 0.900628 0.149524 0.0500821 0.484542 -3.35789 0.0312502 0.023946 -0.210951 
117 1 0.898016 0.200872 -6.90197e-05 0.76799 -3.27995 0.530873 -0.63035 0.48118 
119 1 0.950004 0.201183 0.0520491 0.392143 -3.37757 -0.135615 -0.158989 -0.242226 
478 1 0.950124 0.146181 0.0960343 1.47966 -3.31329 -0.16196 0.407959 0.410648 
517 1 0.902201 0.200748 0.104003 0.664436 -3.32553 -0.336102 -0.335168 -0.428121 
82 1 0.0501714 0.245706 -0.000260317 0.720294 -3.29003 0.334422 0.69952 0.471722 
88 1 0.104756 0.248651 0.0480689 0.833458 -3.33653 -0.563515 0.279132 0.309405 
123 1 0.0503425 0.297785 0.0490994 0.24077 -3.36231 0.224023 0.319259 -0.276428 
482 1 0.0499706 0.252886 0.0948725 2.24153 -3.2611 0.588035 -0.447626 0.952293 
525 1 0.100475 0.30209 0.099714 0.692728 -3.33847 0.147191 -0.502932 -0.356774 
84 1 0.00116321 0.248152 0.054105 0.998418 -3.27531 -0.637059 0.165882 -0.654946 
125 1 0.104656 0.298236 -0.00304045 0.926416 -3.26482 -0.90761 0.48385 0.832567 
92 1 0.203409 0.24932 0.0502108 0.420362 -3.36581 -0.2955 0.189065 0.0867917 
127 1 0.153417 0.302827 0.0493684 0.585599 -3.32254 -0.205314 -0.841867 -0.219517 
486 1 0.149984 0.247469 0.101426 0.488832 -3.3596 0.140894 0.493669 -0.155109 
529 1 0.203452 0.299157 0.0982355 0.877332 -3.33968 -0.62261 -0.209322 0.344635 
129 1 0.203703 0.303027 -0.00305263 1.25823 -3.21594 -1.06297 -0.992206 0.617997 
86 1 0.150622 0.251487 -3.77035e-05 0.569043 -3.26757 0.840111 -0.0252101 0.0270448 
96 1 0.297581 0.246558 0.0566204 1.73639 -3.27908 -0.231775 0.579151 -0.65244 
131 1 0.250307 0.300634 0.049262 0.455187 -3.31485 0.0530905 -0.462237 -0.208308 
490 1 0.25204 0.249774 0.105592 1.02175 -3.2775 -0.202225 0.131288 -0.466066 
533 1 0.296285 0.306065 0.101232 1.74793 -3.26173 0.458555 -0.832797 0.0300581 
133 1 0.301065 0.302329 -0.00382009 2.21239 -3.33508 -0.142832 -0.214377 0.472376 
100 1 0.399496 0.249908 0.0519089 0.532259 -3.30522 -0.100334 0.596538 0.288128 
135 1 0.345753 0.2968 0.0525079 0.934047 -3.36815 0.201657 0.433743 -0.0383847 
137 1 0.398102 0.296556 0.00204316 0.860925 -3.31972 0.108502 0.431214 0.283844 
494 1 0.345722 0.251434 0.103682 0.589774 -3.33719 0.361341 0.134419 -0.111484 
537 1 0.397044 0.30359 0.105381 1.0904 -3.31691 0.222568 -0.334886 -0.77044 
104 1 0.501057 0.24818 0.0551522 1.4668 -3.32147 -0.148473 0.0299997 -0.57843 
139 1 0.44769 0.3037 0.0539265 0.725185 -3.35412 -0.0339204 -0.37542 -0.305411 
143 1 0.543147 0.300086 0.0481429 1.48772 -3.32401 0.536943 -0.192299 0.577671 
498 1 0.447355 0.253324 0.100597 0.567486 -3.31147 -0.114877 -0.446771 -0.10443 
502 1 0.548722 0.246208 0.10161 0.877983 -3.29708 -0.0111293 0.566842 -0.0752415 
541 1 0.496846 0.300659 0.1001 0.606439 -3.31069 0.629798 0.00152688 0.209217 
141 1 0.494346 0.300971 -0.000625674 1.24829 -3.28834 0.249469 -0.487851 0.210463 
108 1 0.597341 0.248846 0.0522864 0.606957 -3.35079 -0.172077 -0.0055733 0.0157297 
147 1 0.645858 0.298506 0.0489484 0.733565 -3.29494 0.527874 0.0850123 0.352995 
506 1 0.649207 0.250802 0.100459 0.121728 -3.38238 -0.0938688 0.10341 0.0471084 
545 1 0.599204 0.30383 0.098902 0.781146 -3.37262 -0.315028 -0.514618 0.225848 
145 1 0.599817 0.294945 0.00116475 0.402618 -3.30834 -0.309509 0.346529 -0.113308 
106 1 0.651322 0.247529 0.00248457 0.238525 -3.26232 0.125432 0.322688 -0.195891 
110 1 0.75549 0.247667 -0.00182437 1.00065 -3.34725 -0.253459 0.164199 0.263403 
112 1 0.699171 0.251497 0.0491424 0.403337 -3.31269 0.358304 -0.286279 0.202854 
151 1 0.75277 0.301257 0.0479729 0.599493 -3.31098 0.0032582 -0.277758 0.412477 
510 1 0.748461 0.251194 0.0982591 0.614735 -3.31024 0.224033 -0.248493 0.107577 
549 1 0.700823 0.298025 0.0969998 0.602097 -3.32079 -0.373123 0.460791 0.100122 
116 1 0.799903 0.248592 0.0552727 1.70949 -3.35404 0.318704 -0.0748461 -0.573518 
155 1 0.854433 0.301879 0.0456701 1.85443 -3.33888 -0.484899 -0.153785 0.274222 
514 1 0.85222 0.251749 0.101391 0.417887 -3.29264 0.00864485 -0.333 -0.247094 
553 1 0.805918 0.301448 0.0972863 1.22131 -3.33166 -0.629508 -0.0810734 0.151287 
521 1 0.999732 0.303077 0.104635 1.84436 -3.30725 0.0805088 -0.708922 -0.557071 
121 1 1.00037 0.294498 -0.000261884 0.497055 -3.35412 -0.0108144 0.13951 0.225205 
120 1 0.899512 0.250089 0.0526713 0.490508 -3.33967 0.122885 -0.219622 -0.232344 
159 1 0.951331 0.297411 0.0499987 0.212587 -3.36015 0.0594165 -0.0161131 0.185449 
518 1 0.949006 0.249078 0.102601 0.278615 -3.32552 0.282007 0.362732 -0.126476 
557 1 0.901074 0.299792 0.100753 0.145955 -3.32117 -0.14973 0.175753 -0.2845 
118 1 0.947505 0.247775 -0.00138052 0.504173 -3.3026 0.327709 -0.0369882 0.324765 
128 1 0.101882 0.348738 0.0456166 0.891455 -3.3254 -0.195287 0.127204 0.463444 
163 1 0.0493466 0.397847 0.0530786 0.665557 -3.32462 0.103555 -0.0307891 -0.534937 
522 1 0.0527617 0.350995 0.0996831 0.58112 -3.30979 -0.18008 -0.397764 -0.0102729 
565 1 0.103468 0.39817 0.100139 0.443322 -3.32967 -0.128867 0.087784 -0.11929 
161 1 -0.000767798 0.398636 0.00105583 0.409052 -3.33244 0.454906 -0.252917 -0.495797 
561 1 -0.00163433 0.394174 0.0989875 0.716209 -3.28595 0.273004 0.228481 0.219581 
165 1 0.0971693 0.402261 -0.000445097 0.725262 -3.3475 0.00526155 -0.126477 0.0069958 
132 1 0.20047 0.350155 0.0485758 0.338707 -3.31752 0.32236 0.390962 0.203111 
167 1 0.15121 0.401845 0.0472402 0.787784 -3.30434 -0.0339316 -0.597839 0.458629 
526 1 0.15187 0.347157 0.0969583 0.892817 -3.30774 0.110251 0.457245 0.323691 
569 1 0.199018 0.403006 0.100627 0.682188 -3.34609 0.168957 -0.63341 0.0652596 
126 1 0.151544 0.353003 -9.26539e-06 0.549153 -3.32239 -0.175532 -0.18911 -0.335286 
169 1 0.20354 0.399218 -0.000514405 0.98652 -3.27454 -0.633587 0.0791193 0.451033 
130 1 0.247951 0.348363 -0.00284506 0.684184 -3.25774 0.889816 0.492783 0.342328 
136 1 0.296321 0.347542 0.0514273 0.975428 -3.33634 0.48546 0.6799 -0.436938 
171 1 0.250498 0.400143 0.0534106 0.473596 -3.33137 -0.463325 -0.250266 -0.174669 
173 1 0.296754 0.400932 0.00263786 0.422649 -3.35682 0.178398 -0.477287 -0.0950829 
530 1 0.246718 0.34908 0.102751 0.78319 -3.2796 -0.232278 0.684396 -0.185477 
573 1 0.298049 0.398374 0.102216 0.292116 -3.3506 0.158353 0.0121293 0.00266591 
140 1 0.396455 0.350019 0.0499568 0.84516 -3.32191 0.263469 -0.181516 0.347923 
175 1 0.35019 0.40345 0.0507281 0.699594 -3.28156 -0.382197 -0.684812 0.133143 
534 1 0.349903 0.35165 0.0988514 0.544406 -3.32488 -0.250677 0.0306949 -0.0430095 
577 1 0.402759 0.399872 0.0999991 0.729948 -3.31881 -0.0484137 -0.0500445 -0.0117607 
177 1 0.397258 0.402261 0.00194348 0.491195 -3.33075 0.312376 -0.27461 -0.480554 
144 1 0.498801 0.353651 0.0534042 1.0574 -3.2753 0.176134 -0.387859 -0.00377931 
179 1 0.447727 0.396733 0.0496318 0.917725 -3.29861 0.0221469 0.50156 0.107947 
183 1 0.55435 0.399029 0.0507603 1.39017 -3.30168 -0.6232 0.309242 -0.412907 
538 1 0.452291 0.350404 0.104541 1.0596 -3.34148 -0.293433 0.395976 -0.0172403 
542 1 0.548658 0.35282 0.104046 1.15665 -3.27713 0.11069 -0.378072 -0.795654 
581 1 0.502031 0.403608 0.0979884 0.990523 -3.31228 -0.36795 -0.0857021 0.448066 
148 1 0.596236 0.347909 0.0473388 0.679328 -3.30401 0.187931 0.00109648 0.150117 
187 1 0.650555 0.395961 0.0467032 0.998354 -3.35327 -0.154977 0.470931 -0.0311063 
546 1 0.648135 0.350416 0.0979517 0.339049 -3.36577 0.141151 0.0753216 0.093875 
585 1 0.599879 0.402997 0.0981167 0.486513 -3.33619 0.309062 -0.0388441 0.251542 
152 1 0.69984 0.349778 0.0495791 0.363369 -3.31642 0.0612018 -0.14386 -0.0246543 
189 1 0.703804 0.396785 -0.00573461 1.97792 -3.27178 -0.364251 0.273314 0.9678 
191 1 0.749792 0.398897 0.050558 0.508151 -3.30651 -0.409376 0.485731 -0.473736 
550 1 0.750692 0.34971 0.0979657 0.231412 -3.30298 -0.251953 -0.186666 0.412416 
589 1 0.700427 0.401459 0.0990181 0.298806 -3.35477 -0.318222 0.000306376 -0.0533504 
156 1 0.799886 0.354753 0.0536112 1.69742 -3.24515 0.469305 -0.652685 -0.925009 
195 1 0.847984 0.403216 0.0491147 0.634812 -3.31993 0.537993 -0.499617 -0.383293 
554 1 0.850368 0.350779 0.0987976 0.298001 -3.31315 0.25722 0.259683 -0.150653 
593 1 0.796505 0.401126 0.0990668 0.557582 -3.27546 0.415227 0.129734 0.351401 
154 1 0.850983 0.353948 -0.00203681 0.937295 -3.32884 -0.101181 -0.371006 0.463995 
124 1 1.00076 0.347139 0.0511119 0.305972 -3.32014 0.149586 -0.139679 -0.321626 
160 1 0.901456 0.349367 0.0486411 0.113311 -3.3524 -0.140421 0.249755 0.131607 
199 1 0.951579 0.396016 0.0480844 0.525948 -3.30103 -0.582338 0.195123 0.370495 
558 1 0.950404 0.347481 0.0997313 0.407881 -3.2977 -0.539395 0.102899 0.0271323 
597 1 0.89814 0.404113 0.0978112 1.11154 -3.36333 0.348002 -0.713205 -0.238358 
168 1 0.0972481 0.44555 0.05304 1.64245 -3.32177 0.0411531 0.642509 -0.180024 
203 1 0.0492772 0.501708 0.0493911 0.662893 -3.245 -0.102418 -1.01756 -0.188469 
208 1 0.0949596 0.548987 0.047907 1.15804 -3.26379 0.814627 0.567818 0.071159 
562 1 0.0472699 0.447853 0.100376 0.582419 -3.29516 0.556227 -0.193939 -0.397093 
601 1 0.00212334 0.496301 0.0968151 0.462195 -3.27053 -0.140729 0.339206 0.301215 
602 1 0.0509289 0.547025 0.0968892 0.432915 -3.24498 -0.362491 0.177654 0.782955 
605 1 0.0997841 0.499146 0.0990685 0.27799 -3.37027 0.148212 -0.230639 0.0663541 
205 1 0.0994084 0.500671 0.00405137 0.999199 -3.31388 0.129066 -0.316367 -0.780804 
164 1 -0.00161086 0.444581 0.0484144 0.76744 -3.28607 0.346656 0.430866 0.219522 
201 1 0.000628843 0.497865 -0.00148607 0.294007 -3.33158 -0.1515 0.132912 -0.0783175 
202 1 0.0501383 0.549198 -0.00427967 0.572279 -3.28505 0.157375 0.0165047 0.275442 
162 1 0.047646 0.451242 0.000285713 0.515931 -3.34197 0.271143 -0.353028 -0.0679397 
172 1 0.199572 0.451671 0.0531401 0.501485 -3.30747 0.393599 -0.0244635 -0.345233 
207 1 0.149132 0.504599 0.0492602 0.912286 -3.29816 0.0578917 -0.265112 0.43485 
212 1 0.200848 0.55147 0.0523828 0.776763 -3.29221 -0.329311 -0.106098 -0.470353 
566 1 0.151419 0.449423 0.0983798 0.437504 -3.30891 -0.411943 0.381242 0.348124 
606 1 0.149239 0.55369 0.0992619 0.595764 -3.35951 -0.147607 -0.418992 0.0965694 
609 1 0.200716 0.503758 0.0985445 0.688126 -3.29646 -0.115024 -0.197988 0.207574 
176 1 0.297188 0.447396 0.0518982 0.52008 -3.31545 0.120258 0.568879 0.127809 
211 1 0.248803 0.499167 0.052055 0.241336 -3.3513 0.364244 0.0108508 -0.24912 
216 1 0.299809 0.549123 0.047672 1.03821 -3.31696 0.0115482 -0.0178694 0.0542986 
570 1 0.250236 0.449374 0.104114 0.372615 -3.29944 0.0506226 0.0205103 -0.307162 
610 1 0.253809 0.55153 0.0966453 1.68769 -3.31913 -0.214202 -0.174311 0.710559 
613 1 0.297718 0.49841 0.106446 1.52024 -3.32621 0.246657 0.189694 -0.67016 
210 1 0.247329 0.551736 -0.00230223 0.984433 -3.28155 0.0244826 -0.20175 0.685144 
213 1 0.300061 0.497775 0.00301066 0.428573 -3.3364 -0.312256 0.236699 0.0959674 
180 1 0.398322 0.450425 0.0519998 0.279767 -3.28752 0.315116 0.191455 -0.1273 
215 1 0.348041 0.499352 0.0548301 0.642454 -3.36567 -0.00606034 0.246047 -0.293664 
220 1 0.399491 0.555078 0.0551351 1.57842 -3.30038 -0.459389 -0.412419 -0.467152 
574 1 0.348938 0.447303 0.0995458 0.664648 -3.31239 -0.0834403 0.518796 0.352168 
614 1 0.343587 0.552284 0.1012 1.5999 -3.32901 0.534064 -0.351826 -0.0390361 
617 1 0.398174 0.501935 0.100367 0.340957 -3.32955 -0.195451 -0.0754106 0.32551 
184 1 0.499492 0.446965 0.0457578 1.25015 -3.3674 0.208419 0.44386 0.150431 
219 1 0.44498 0.503474 0.0529955 1.4936 -3.30667 0.387945 -0.63475 -0.39278 
223 1 0.549237 0.500083 0.0460786 0.782482 -3.34791 -0.0769377 -0.448678 0.234826 
224 1 0.499541 0.54538 0.050994 1.2421 -3.32991 0.155047 0.716115 -0.103835 
578 1 0.449993 0.449563 0.0964364 1.12179 -3.3523 0.162218 0.101346 0.406986 
582 1 0.548248 0.453936 0.0985882 0.881323 -3.30915 0.254379 -0.475205 0.0890928 
618 1 0.450877 0.551727 0.0983513 0.699776 -3.3175 -0.015609 0.000884421 0.690151 
621 1 0.499865 0.499167 0.101804 0.571884 -3.28768 -0.22894 0.0413951 -0.294625 
622 1 0.550559 0.547639 0.104637 1.13328 -3.3027 -0.0110295 0.648116 -0.600878 
222 1 0.548636 0.550195 -0.000110052 0.379408 -3.34357 -0.16349 0.14979 0.192798 
182 1 0.555867 0.448631 -0.00406589 1.87129 -3.30444 -0.107104 -0.254976 0.628395 
188 1 0.601126 0.450309 0.0495387 0.582159 -3.29338 -0.2171 -0.00553131 0.0629885 
227 1 0.647935 0.500016 0.0481828 0.255909 -3.31466 -0.0486648 0.0703209 -0.0275909 
228 1 0.597109 0.546551 0.0508071 0.969386 -3.32038 -0.0905314 0.181576 -0.120176 
586 1 0.6506 0.453485 0.0990524 0.601498 -3.27336 -0.493931 -0.473085 -0.0669225 
625 1 0.597378 0.499938 0.100464 0.581928 -3.34369 0.510819 -0.0372543 -0.000897999 
626 1 0.649705 0.55278 0.0992006 0.584291 -3.31015 -0.158308 -0.587255 0.361367 
225 1 0.598604 0.500371 -0.00562279 0.996808 -3.27227 0.39163 0.133672 0.577668 
192 1 0.697018 0.449662 0.0498707 0.373135 -3.34203 0.146982 -0.0330441 -0.286683 
230 1 0.753793 0.55253 -0.00342606 1.46572 -3.32988 -0.24034 -0.324748 0.61218 
231 1 0.748379 0.50218 0.054125 1.30089 -3.3443 0.305238 -0.223747 -0.711393 
232 1 0.698199 0.547541 0.0495342 0.666049 -3.34564 0.235571 0.443149 -0.140024 
590 1 0.751663 0.454436 0.100531 1.03225 -3.3391 -0.502258 -0.196317 -0.0874982 
629 1 0.69722 0.502317 0.0993751 0.399115 -3.2929 0.416032 -0.000586231 0.19088 
630 1 0.749958 0.551771 0.100062 0.226965 -3.34519 0.0809012 -0.127158 0.0553777 
229 1 0.698577 0.501048 -0.00140558 0.299873 -3.34024 -0.0307259 0.020194 0.228699 
196 1 0.798567 0.44912 0.0475643 0.528229 -3.3067 -0.292635 0.456999 -0.0166852 
235 1 0.850848 0.496898 0.0463477 0.797902 -3.32689 -0.0595258 0.411511 0.159495 
236 1 0.801101 0.550217 0.0513709 0.347366 -3.34465 -0.24971 -0.141093 -0.143745 
594 1 0.848277 0.449434 0.0946837 0.78874 -3.2468 -0.0100397 0.264535 0.471339 
633 1 0.803592 0.499821 0.0988078 0.709493 -3.32609 -0.270824 0.317042 0.089306 
634 1 0.850883 0.550763 0.0980012 0.223761 -3.38586 0.161078 0.00738274 0.194387 
234 1 0.847408 0.548206 0.00187209 0.992319 -3.34571 0.226481 0.138018 -0.181362 
204 1 1.00326 0.549461 0.0489277 0.329533 -3.32842 -0.581482 0.0711832 -0.0531068 
200 1 0.902195 0.452466 0.0483239 0.733051 -3.33691 -0.00880596 -0.543343 0.128187 
238 1 0.952534 0.54952 -0.00137068 0.344582 -3.34018 -0.223426 0.101233 0.117095 
239 1 0.954825 0.496678 0.0493196 0.627247 -3.32172 -0.344451 0.456313 0.0655806 
240 1 0.904061 0.549069 0.0483241 0.774997 -3.34789 -0.425009 -0.272664 0.291286 
598 1 0.954491 0.447657 0.100915 1.26042 -3.2834 -0.299827 -0.0503283 -0.462621 
637 1 0.900315 0.501251 0.0990419 0.549393 -3.31582 0.0735041 0.473129 -0.485293 
638 1 0.953926 0.548959 0.103594 1.43954 -3.32167 -0.449129 -0.136613 -0.797777 
198 1 0.949181 0.447185 2.03743e-05 0.551324 -3.29665 0.21747 0.295022 -0.256236 
243 1 0.0508306 0.600687 0.0488736 0.47829 -3.32128 0.0285292 0.0888718 0.0239235 
248 1 0.0984395 0.653012 0.049167 0.566401 -3.31496 0.156366 -0.542451 0.163645 
642 1 0.0479525 0.650798 0.0994818 0.352916 -3.34676 0.253768 -0.31408 -0.296129 
645 1 0.0959825 0.597084 0.102446 1.4243 -3.32718 0.33343 0.424205 -0.643328 
245 1 0.0994005 0.599013 -0.0014653 0.183242 -3.3574 -0.0841866 0.219675 0.0277313 
247 1 0.147601 0.599539 0.0493083 0.286979 -3.36627 -0.138503 0.146672 0.0946245 
252 1 0.198489 0.648378 0.0489921 0.203139 -3.34567 0.0887336 0.0592475 -0.0531002 
646 1 0.147148 0.650707 0.0971478 0.609039 -3.30662 0.538632 -0.233301 -0.0159193 
649 1 0.199479 0.601973 0.098739 0.346722 -3.33932 0.00870147 -0.0775118 0.210541 
250 1 0.249959 0.646075 -0.00126824 0.531967 -3.35947 -0.0471646 0.431642 0.0433104 
251 1 0.247509 0.597144 0.049113 0.891367 -3.29639 0.325994 0.605301 -0.226095 
256 1 0.301624 0.64902 0.0486237 0.371374 -3.32423 0.0117226 0.26971 -0.0163874 
650 1 0.252093 0.64992 0.0965773 0.507206 -3.29033 -0.179333 -0.0735556 0.364665 
653 1 0.299152 0.602982 0.0994356 0.543791 -3.29008 0.0693018 -0.0829128 0.200869 
253 1 0.301131 0.600698 0.0030778 0.794155 -3.36585 0.173313 -0.189112 -0.414201 
255 1 0.349497 0.600831 0.0544448 0.816703 -3.28613 0.108883 -0.0778189 -0.469379 
260 1 0.398751 0.647039 0.0487712 1.21997 -3.29475 0.242061 0.526641 0.274183 
654 1 0.351933 0.655113 0.102101 1.22278 -3.34345 0.0156465 -0.42679 0.00899621 
657 1 0.400209 0.601689 0.104216 0.751129 -3.31991 -0.0880834 0.139208 -0.395883 
259 1 0.448754 0.603245 0.0491406 1.01204 -3.29458 0.454509 -0.338816 0.372387 
263 1 0.552125 0.60137 0.052385 0.742166 -3.30547 -0.706921 -0.72919 -0.21153 
264 1 0.501578 0.650906 0.0508771 0.292637 -3.3186 -0.111715 -0.452582 -0.0737848 
658 1 0.451988 0.652037 0.0992866 0.608626 -3.32628 -0.358932 -0.489751 0.264031 
661 1 0.500858 0.599197 0.0999153 0.267037 -3.38604 0.075206 0.0516603 -0.0475319 
662 1 0.553406 0.650415 0.103996 0.880702 -3.26893 -0.296186 -0.1628 -0.526008 
262 1 0.548523 0.647544 -0.000674422 0.527477 -3.34699 -0.227365 0.252237 -0.326594 
261 1 0.497436 0.598451 0.0021957 0.620433 -3.35156 0.412472 -0.12575 -0.0559674 
267 1 0.643394 0.594987 0.0501567 2.26322 -3.24086 0.936406 0.801888 -0.299954 
268 1 0.595557 0.649186 0.0482916 1.52083 -3.26126 0.910023 0.234674 0.418727 
665 1 0.600813 0.600953 0.098009 0.571645 -3.27526 -0.240039 -0.132845 0.828014 
666 1 0.6531 0.648721 0.0962041 1.46276 -3.36483 -0.37801 0.332374 0.0156657 
271 1 0.751917 0.60011 0.0501632 0.422477 -3.29139 -0.552871 -0.415341 0.0179076 
272 1 0.69985 0.647121 0.0477709 0.678967 -3.33513 -0.0844451 0.13135 0.130748 
669 1 0.699752 0.598026 0.100451 0.51592 -3.31284 0.0711047 0.209206 -0.290437 
670 1 0.745153 0.6503 0.0975377 1.24585 -3.36066 0.285991 0.212624 0.323527 
275 1 0.850796 0.599555 0.0485146 0.301355 -3.29647 0.0586229 -0.0631066 0.514372 
276 1 0.798438 0.646593 0.0505666 0.892621 -3.31491 0.223638 1.00726 0.0152594 
673 1 0.800315 0.60313 0.0990589 0.323652 -3.29718 0.045346 -0.315992 0.134938 
674 1 0.85215 0.651469 0.101011 0.460985 -3.35488 -0.227755 -0.203447 -0.28797 
273 1 0.79937 0.601121 0.000890173 0.488218 -3.24856 -0.144544 -0.347844 -0.407354 
274 1 0.844662 0.647379 0.000500959 1.35525 -3.28371 0.742378 0.554884 -0.328199 
244 1 0.996068 0.64642 0.0488664 1.01758 -3.37459 0.0963257 0.377553 -0.124168 
641 1 1.00211 0.597976 0.097925 0.410063 -3.35965 -0.0890962 0.222441 0.112017 
279 1 0.94736 0.597499 0.047001 0.730993 -3.30853 0.491903 0.282266 0.130012 
280 1 0.900022 0.649333 0.0497468 0.317796 -3.3584 -0.0425624 0.133528 -0.103908 
677 1 0.90199 0.599558 0.0993701 0.331422 -3.32135 -0.461139 -0.1328 -0.133607 
678 1 0.948633 0.650248 0.101988 0.612579 -3.32184 0.204241 0.24696 -0.57628 
277 1 0.894888 0.600427 -0.00142778 1.24175 -3.28619 0.744925 -0.169469 0.00924642 
278 1 0.947459 0.647263 -0.00422523 0.565892 -3.31673 0.601394 0.0229783 0.576726 
283 1 0.0492221 0.698862 0.0467798 0.447654 -3.29567 -0.144323 0.0412835 0.151357 
284 1 0.00435331 0.750034 0.0513512 0.994568 -3.34562 -0.625606 -0.214626 -0.278347 
288 1 0.0993724 0.748699 0.0478707 0.383048 -3.36938 0.285806 -0.12468 -0.148954 
682 1 0.0535887 0.746872 0.0983386 0.811504 -3.30813 -0.345419 0.517987 0.34774 
685 1 0.101069 0.701001 0.0999398 0.36621 -3.2912 -0.0267823 -0.143259 -0.28738 
287 1 0.150802 0.701152 0.0501817 0.371466 -3.37932 0.0222723 0.130711 -0.0469008 
292 1 0.19819 0.752132 0.0471449 0.664003 -3.29405 0.206795 -0.53618 0.67706 
686 1 0.152417 0.753217 0.100447 0.836397 -3.25488 0.0594155 -0.666626 -0.496875 
689 1 0.202208 0.69873 0.09855 0.525611 -3.33657 -0.308364 0.0450229 -0.0314149 
291 1 0.248246 0.695526 0.0479543 0.942862 -3.33144 0.287432 0.553198 -0.144467 
296 1 0.298505 0.751727 0.0489263 0.642539 -3.39501 0.165733 -0.412491 0.0983153 
690 1 0.244502 0.752206 0.100843 1.14179 -3.28001 0.752266 -0.0622936 -0.713595 
693 1 0.297608 0.701998 0.0988812 0.648579 -3.3206 0.298617 0.0577274 -0.263879 
295 1 0.352308 0.697131 0.0504585 0.811906 -3.35406 -0.100537 0.612212 -0.206256 
300 1 0.400356 0.751833 0.0572027 2.20482 -3.22344 -0.785596 -0.390372 -1.33075 
694 1 0.350264 0.747364 0.105398 1.61922 -3.2868 -0.249912 0.193983 -0.617415 
697 1 0.40316 0.699931 0.100028 0.683141 -3.29493 -0.244351 0.00407824 0.376363 
299 1 0.449465 0.697106 0.0506765 0.963189 -3.34248 0.21475 0.378755 -0.318865 
303 1 0.548157 0.69735 0.0530813 1.07852 -3.28493 0.388061 0.312659 -0.422111 
304 1 0.50193 0.751667 0.0505973 0.544704 -3.24188 -0.226335 -0.454635 -0.209879 
698 1 0.451309 0.750964 0.0943128 2.38368 -3.17783 0.683701 -0.541275 1.34467 
701 1 0.501876 0.696726 0.102348 0.851694 -3.29047 -0.248857 0.652295 -0.15884 
702 1 0.549807 0.749799 0.0958753 1.20549 -3.29042 -0.0964896 -0.236718 0.671882 
302 1 0.552194 0.74652 0.00519238 1.2411 -3.31508 -0.311673 0.153145 -0.821311 
298 1 0.45181 0.751402 0.00196197 0.355572 -3.34682 -0.139739 -0.0353275 -0.0196623 
307 1 0.652321 0.701098 0.0491565 0.593525 -3.3372 -0.0130844 -0.418164 0.386232 
308 1 0.60161 0.747102 0.047263 0.862215 -3.2745 0.307056 0.0722221 0.462317 
705 1 0.601615 0.699749 0.0990935 0.337489 -3.3639 -0.0319966 -0.0660144 0.0170024 
706 1 0.649661 0.748975 0.100902 0.214544 -3.30724 0.151312 0.231936 -0.324457 
311 1 0.749727 0.70048 0.0479794 0.370247 -3.33466 -0.073863 -0.539385 0.145404 
312 1 0.701831 0.747822 0.0499202 0.435349 -3.32209 -0.144023 0.17695 -0.118931 