ITEM: TIMESTEP
11000
ITEM: NUMBER OF ATOMS
4000
ITEM: BOX BOUNDS pp pp pp
2.1606833428570380e+00 3.8339316657142390e+01
-1.1995988097488883e+00 4.1699598809747954e+01
-1.1938246916106265e+00 4.1693824691610516e+01
ITEM: ATOMS id type xs ys zs c_csym c_peratom fx fy fz 
8 1 0.0935209 0.0530268 0.0512642 5.02766 -3.26715 -0.0268499 -0.0966525 0.35024 
3 1 0.0504782 0.998564 0.0450407 1.05018 -3.28593 0.245032 -0.14383 0.107298 
402 1 0.0421993 0.0532865 0.101571 5.46489 -3.37302 0.0794537 0.42569 -0.198743 
401 1 -0.00166227 0.00129753 0.0927339 1.09713 -3.28405 0.289108 -0.26779 0.136012 
12 1 0.194775 0.0520754 0.0503335 0.366833 -3.22891 0.465544 0.405787 -0.136293 
47 1 0.142923 0.103284 0.0542157 0.783162 -3.22539 0.538716 -0.184333 -0.784679 
11 1 0.249166 0.0049911 0.0455841 1.96969 -3.24833 0.28375 -0.274506 0.330649 
7 1 0.149766 0.00432616 0.0536986 2.03709 -3.25678 -0.676539 -0.563188 -0.318019 
406 1 0.150258 0.0535631 0.0991416 0.482877 -3.29433 -0.185271 -0.30061 0.38339 
449 1 0.199115 0.105007 0.101848 0.851783 -3.31437 0.300956 -0.548413 -0.0903547 
16 1 0.297699 0.0521092 0.0514829 0.65082 -3.28637 0.130444 0.0137148 -0.298095 
15 1 0.346682 -0.00143494 0.0481591 0.634569 -3.30746 -0.207559 0.222889 0.0908279 
414 1 0.346368 0.051689 0.102972 0.729748 -3.29102 -0.0938561 -0.240784 -0.0531736 
13 1 0.296848 1.00159 0.994811 0.910307 -3.25014 0.0600218 0.379066 0.117343 
20 1 0.394267 0.0490388 0.0548839 1.48498 -3.25846 -0.210433 0.189041 -0.322725 
24 1 0.498063 0.0539329 0.0464368 1.47574 -3.27971 0.0146037 -0.138041 0.273049 
18 1 0.437279 0.0492751 1.0009 2.30953 -3.30428 0.491852 0.154083 -0.213844 
19 1 0.44763 1.00615 0.0517183 1.84971 -3.31626 -0.0200883 -0.62324 -0.0992914 
418 1 0.449726 0.0510719 0.100352 0.479223 -3.33914 0.112756 0.0576172 0.146157 
28 1 0.598602 0.0535989 0.0480944 1.06225 -3.3062 0.038818 -0.346325 0.0736832 
22 1 0.54586 0.0517965 -0.000493732 0.524758 -3.30969 0.580092 -0.15276 -0.107356 
63 1 0.552009 0.102389 0.0455143 1.62654 -3.25506 -0.590242 -0.200282 0.309084 
25 1 0.602044 1.00292 1.00438 1.47913 -3.28656 -0.413606 0.323277 -0.522341 
23 1 0.545088 -8.63232e-05 0.0532214 1.25226 -3.32757 0.200764 0.29844 -0.126419 
32 1 0.706926 0.0473834 0.0501093 5.24855 -3.30516 0.295166 0.280685 0.22029 
67 1 0.657208 0.0981562 0.0486218 1.37878 -3.34435 -0.20058 -0.166459 0.36706 
71 1 0.747182 0.101482 0.0436448 5.88646 -3.30402 -0.0672613 0.0858311 0.327264 
69 1 0.700187 0.101428 -0.00637909 1.42567 -3.19748 0.0447556 0.66965 0.215198 
36 1 0.799209 0.0542757 0.0445291 5.96546 -3.2895 -0.227534 -0.13613 -0.221383 
35 1 0.845313 0.00365779 0.0478593 5.93476 -3.26582 -0.154854 -0.275249 -0.552168 
75 1 0.849935 0.103451 0.0461806 0.708524 -3.20585 0.463838 -0.144438 -0.381596 
434 1 0.843752 0.0545869 0.0966846 5.81221 -3.24888 0.361668 -0.0291388 -0.315506 
30 1 0.74754 0.0533236 -0.00694774 2.31205 -3.27321 0.378419 -0.330277 0.450146 
34 1 0.851487 0.0511624 0.995533 0.417794 -3.17582 -0.354382 -0.288536 0.116248 
4 1 0.00303529 0.0499798 0.043223 6.14706 -3.32285 0.202207 -0.322753 0.11246 
40 1 0.896942 0.0504346 0.041761 0.693734 -3.28883 0.286569 -0.0285739 0.657635 
39 1 0.949055 0.00160144 0.0437698 0.192868 -3.29726 0.473127 0.271459 -0.0050857 
38 1 0.949466 0.0515962 0.993425 1.14732 -3.3059 0.413443 -0.509041 0.320246 
77 1 0.899593 0.0983065 0.994546 0.94953 -3.28631 0.176217 0.473822 -0.136519 
445 1 0.100077 0.101075 0.100819 0.74823 -3.2159 -0.739985 0.0354173 0.46962 
43 1 0.0486765 0.104432 0.0511485 5.21512 -3.25178 -0.141864 -0.112188 0.509034 
48 1 0.097568 0.154108 0.0565673 1.61619 -3.2668 -0.109773 0.235015 -0.619948 
83 1 0.0404261 0.205287 0.0524547 0.684892 -3.25961 0.442635 -0.0861392 -0.409816 
81 1 -0.0134505 0.206772 1.00474 7.49728 -3.24047 0.997758 -0.342653 -0.368461 
52 1 0.193288 0.151045 0.0506216 1.03909 -3.27854 -0.204347 0.275758 -0.104553 
446 1 0.148208 0.153345 0.10336 0.70885 -3.22369 -0.277869 -0.0878043 -0.115385 
87 1 0.144958 0.20498 0.0481936 0.876948 -3.33778 0.107355 -0.0523585 -0.0855589 
49 1 0.187851 0.103419 -0.000258821 1.55328 -3.32714 -0.061345 0.170418 0.333462 
51 1 0.242836 0.102027 0.0500401 0.467937 -3.30657 0.130707 -0.21614 -0.0643686 
55 1 0.347054 0.100219 0.0475365 0.582598 -3.26903 -0.175661 0.244865 0.330571 
56 1 0.294296 0.14962 0.0458543 0.811348 -3.23878 0.551666 -0.0983677 0.158862 
59 1 0.445915 0.0997631 0.0489608 0.340247 -3.29498 0.0615536 0.0781836 -0.124498 
60 1 0.40043 0.149201 0.0540881 1.43472 -3.24962 -0.244182 0.133366 -0.741234 
64 1 0.501688 0.149933 0.0497719 0.676263 -3.34111 -0.166075 -0.0910331 -0.258711 
57 1 0.392302 0.101348 0.000644338 0.56664 -3.2926 0.482979 0.341186 -0.603342 
461 1 0.500829 0.0991714 0.096129 0.963564 -3.29162 -0.253193 0.301197 0.0617898 
68 1 0.600546 0.14879 0.0494344 0.738044 -3.30151 0.143996 -0.246939 -0.180299 
462 1 0.552658 0.146507 0.100968 1.07778 -3.25286 0.2892 -0.104788 -0.609706 
101 1 0.505073 0.196974 -0.00294939 1.56959 -3.32815 -0.212461 0.199928 0.20041 
72 1 0.695927 0.151174 0.0480771 1.6206 -3.16822 0.70214 -0.202504 -0.702739 
107 1 0.649761 0.197189 0.0455939 0.863057 -3.13226 -0.0581644 0.562907 -0.484136 
66 1 0.64681 0.150722 -0.00413574 0.759414 -3.3098 0.333284 0.0476945 -0.171277 
70 1 0.748678 0.15054 0.000955388 1.60251 -3.27734 -0.041305 0.0545224 -0.712077 
109 1 0.698875 0.197207 0.99563 0.799356 -3.30352 0.329709 0.0819382 0.0188354 
76 1 0.79888 0.152422 0.0440818 0.684799 -3.24051 0.299139 -0.102319 -0.0170529 
513 1 0.805964 0.199575 0.0930098 6.12994 -3.22308 0.238703 0.19959 -0.0937982 
115 1 0.856008 0.194694 0.0429746 5.50568 -3.2773 0.674747 0.0631199 -0.284597 
111 1 0.749566 0.201849 0.0475179 1.19684 -3.25438 0.173106 -0.407558 -0.366168 
73 1 0.803997 0.101093 0.998621 1.08374 -3.26155 -0.410453 0.213175 -0.216693 
113 1 0.802916 0.200463 0.994832 0.429805 -3.3098 0.0485942 -0.491551 -0.342252 
44 1 0.997673 0.15003 0.0551759 7.36193 -3.22057 -0.298026 0.439809 -0.74766 
79 1 0.951182 0.096402 0.0442604 2.11049 -3.22866 0.575146 0.0881883 -0.324746 
80 1 0.907328 0.147908 0.0403195 6.4194 -3.2722 0.0175936 0.186694 -0.357426 
481 1 0.993886 0.201086 0.0980162 1.34378 -3.25064 -0.528571 0.294662 0.231287 
517 1 0.893829 0.204973 0.101116 5.52895 -3.28693 -0.0504074 -0.0823298 -0.076479 
41 1 1.01359 0.0915416 0.996843 6.60373 -3.26456 -0.186722 0.260245 -0.361085 
78 1 0.964386 0.138319 0.995049 7.38525 -3.34133 -0.121233 0.571598 -0.0659197 
88 1 0.0940419 0.254528 0.049233 0.382127 -3.29262 -0.42604 -0.10683 -0.172661 
123 1 0.0435077 0.30317 0.052193 0.637648 -3.28623 0.366883 0.0966543 -0.348642 
84 1 -0.0078517 0.255482 0.0549432 0.705554 -3.28071 0.0121497 0.0193591 -0.257962 
125 1 0.0947656 0.300513 0.00262408 1.12369 -3.3609 -0.0683377 0.296396 -0.420007 
525 1 0.100443 0.304115 0.0997418 0.449754 -3.2764 -0.46596 -0.45565 -0.168098 
82 1 0.0349294 0.256342 -0.000267392 0.873822 -3.33169 0.0495046 0.10478 0.189081 
91 1 0.248455 0.199141 0.0494346 0.731166 -3.26399 -0.0729575 0.346763 0.237777 
92 1 0.20319 0.253807 0.0501495 1.19213 -3.30601 -0.299187 -0.250131 -0.465281 
86 1 0.147924 0.252997 1.00114 0.777541 -3.32546 -0.172196 -0.140388 -0.161645 
489 1 0.195011 0.200345 0.0975744 1.06033 -3.32654 0.315466 0.360854 0.248049 
490 1 0.248178 0.247757 0.0987103 0.75129 -3.30311 0.457166 0.215898 0.156473 
90 1 0.252132 0.254711 0.99826 0.705469 -3.27626 -0.131428 0.164254 -0.090404 
93 1 0.295951 0.202274 -0.00125147 0.447917 -3.28667 0.238905 0.0107422 0.136657 
95 1 0.348578 0.196558 0.0503963 0.776157 -3.33185 0.279576 0.228706 -0.285887 
96 1 0.299798 0.248304 0.0467942 0.812802 -3.33406 0.0446406 0.247783 0.303583 
94 1 0.355032 0.249438 1.00018 0.995116 -3.26546 -0.426065 0.0054933 -0.0101991 
97 1 0.397782 0.198946 1.00035 0.444005 -3.23898 0.0491914 -0.0790685 0.026956 
99 1 0.447799 0.199173 0.0487121 0.543683 -3.30372 0.390417 -0.0998359 0.252512 
100 1 0.403141 0.249849 0.0496832 0.45124 -3.2506 -0.178654 -0.0997762 -0.221774 
98 1 0.449205 0.25152 -0.00237559 0.4719 -3.32928 0.23651 -0.173857 -0.0149419 
104 1 0.50238 0.245198 0.0462906 1.20176 -3.26795 -0.498723 -0.0702527 0.194761 
501 1 0.506177 0.194651 0.0979238 1.44311 -3.28385 -0.72943 0.927687 0.164365 
498 1 0.446738 0.250105 0.0998924 1.51185 -3.27108 1.02948 -0.479639 -0.10982 
103 1 0.553779 0.200179 0.0517463 1.85488 -3.15199 -0.125466 -0.458437 -0.304987 
143 1 0.549544 0.293563 0.0466236 5.72594 -3.27502 0.202159 0.576227 -0.025309 
108 1 0.603011 0.244819 0.0428439 1.90453 -3.22018 -0.0982634 0.717548 0.109671 
145 1 0.60214 0.301394 0.995814 0.702371 -3.30632 -0.144624 -0.360218 0.385757 
505 1 0.607552 0.19394 0.0962193 5.73531 -3.30248 0.0133859 0.553907 0.473877 
502 1 0.556712 0.24944 0.0956276 1.16116 -3.29088 -0.572843 -0.818599 0.266688 
112 1 0.706907 0.25019 0.0417649 1.30409 -3.27221 -0.808355 0.1151 0.475739 
110 1 0.752241 0.247147 -0.00583537 0.779459 -3.28099 0.575608 -0.191171 -0.491813 
147 1 0.649442 0.296925 0.0451722 2.16521 -3.28985 0.664368 -0.107455 -0.341716 
506 1 0.651933 0.256134 0.0918652 7.16192 -3.23358 -0.390928 -0.800651 -0.207402 
151 1 0.763749 0.29614 0.0409412 7.39473 -3.30822 -0.0181533 -0.34651 -0.15613 
509 1 0.694321 0.200713 0.0932273 6.30465 -3.2785 0.137572 0.425319 0.319398 
106 1 0.652525 0.247529 0.994489 0.544514 -3.29504 -0.0429094 0.0697271 0.306739 
116 1 0.810323 0.242071 0.0404445 7.44043 -3.2996 -0.104642 0.747129 0.141182 
114 1 0.862517 0.241932 0.98885 7.6376 -3.32865 0.111807 0.292756 0.175724 
117 1 0.916885 0.197203 0.992156 8.49635 -3.24669 -0.715645 -0.760213 -0.323373 
119 1 0.938769 0.210922 0.0498232 7.40611 -3.21201 -0.198361 -0.440049 0.872833 
120 1 0.885929 0.256828 0.0519148 6.70133 -3.31319 0.215362 0.135239 -0.106504 
159 1 0.9423 0.305116 0.0501304 0.628165 -3.27607 0.0340503 0.219328 0.18591 
118 1 0.937431 0.257082 1.00316 6.97305 -3.30029 -0.0793318 0.604871 0.0855127 
121 1 -0.0114443 0.309351 1.00317 0.864429 -3.2928 0.215963 -0.00903134 -0.228256 
128 1 0.100299 0.35269 0.0507847 0.417958 -3.30204 -0.520879 0.209776 -0.371459 
122 1 0.0488734 0.354996 -0.000312014 0.616385 -3.34525 0.0666464 -0.169162 -0.0461045 
127 1 0.146661 0.302494 0.0495068 0.317865 -3.27508 0.244986 -0.0917798 0.035098 
132 1 0.199894 0.348832 0.0503902 0.59589 -3.334 -0.279862 0.377988 0.0168585 
167 1 0.149132 0.404931 0.0483377 0.915633 -3.29668 0.309879 -0.25174 0.957555 
529 1 0.200859 0.29818 0.0980042 0.482132 -3.33074 -0.181499 0.262047 0.0956869 
526 1 0.1468 0.352336 0.0988838 0.458302 -3.23484 0.526333 -0.0687077 -0.260859 
135 1 0.35498 0.301844 0.0530597 1.16733 -3.21077 -0.790236 -0.190801 -0.871591 
133 1 0.305724 0.299861 1.0031 1.57717 -3.31664 -0.0624985 0.16544 -0.524035 
131 1 0.254529 0.302596 0.0492633 0.957574 -3.29596 -0.19934 -0.344796 0.0431272 
136 1 0.302076 0.351291 0.045329 1.53846 -3.29359 -0.109847 0.0876494 0.784631 
534 1 0.357147 0.348944 0.0985581 0.949288 -3.30967 -0.237612 0.407701 0.258739 
139 1 0.458065 0.298683 0.0484706 1.66024 -3.2852 -0.165391 -0.229286 -0.174563 
140 1 0.408848 0.350083 0.0520805 1.19127 -3.31739 -0.222755 0.0136318 -0.454225 
144 1 0.498834 0.350533 0.0499551 1.48574 -3.31827 0.75225 -0.366914 -0.0150641 
537 1 0.403107 0.29842 0.0948268 1.94292 -3.1625 0.112772 0.0615233 1.04329 
538 1 0.450806 0.349647 0.10418 2.17999 -3.22011 0.244591 0.0436364 -0.396949 
148 1 0.604495 0.344539 0.0499384 2.60171 -3.30281 -0.282257 0.515846 -0.212066 
542 1 0.555634 0.354286 0.101218 3.11045 -3.29311 -0.101072 -0.266457 -0.197626 
183 1 0.556552 0.396341 0.0451186 0.840057 -3.31894 0.322025 0.0921337 0.389773 
545 1 0.595838 0.299083 0.0972832 3.98097 -3.18865 0.574966 0.525339 -0.107968 
541 1 0.502683 0.300437 0.100893 0.639925 -3.33351 0.244769 -0.122051 -0.158644 
185 1 0.607089 0.399913 0.993309 1.18428 -3.17519 0.269437 -0.265928 0.295532 
152 1 0.714914 0.342867 0.0366752 7.1599 -3.22209 -1.18243 0.336564 0.968622 
146 1 0.654937 0.348782 0.997193 1.20614 -3.27122 0.077579 -0.540766 -0.178804 
187 1 0.662349 0.395817 0.0361019 6.66442 -3.29948 0.23895 -0.180663 0.961019 
546 1 0.665068 0.344219 0.08982 7.21649 -3.31256 -0.154237 -0.034749 0.0757475 
149 1 0.705063 0.293785 0.993859 0.687506 -3.32003 -0.198048 0.625896 -0.0154754 
155 1 0.836448 0.305281 0.0533202 7.02228 -3.3129 0.161326 0.184941 -0.03756 
156 1 0.784417 0.361041 0.0542017 6.39836 -3.22915 0.472817 -0.246505 -0.186678 
195 1 0.843357 0.404417 0.0558105 1.05091 -3.29217 -0.250802 0.424499 -0.344353 
554 1 0.841241 0.355501 0.097683 1.03105 -3.25262 0.145959 -0.0973177 0.225016 
153 1 0.814688 0.292092 0.989292 7.96262 -3.34342 -0.227739 0.082587 0.331958 
150 1 0.760409 0.342633 0.993551 6.84336 -3.23226 0.658764 -0.0604094 -0.925677 
193 1 0.789414 0.404946 0.00618446 6.16289 -3.30428 -0.555591 0.387466 -0.0437338 
124 1 1.00204 0.356594 0.0487538 1.69874 -3.34158 -0.515581 0.0651528 0.137797 
160 1 0.895162 0.361606 0.0521325 1.8149 -3.22354 -0.14635 -0.708993 0.113199 
157 1 0.886408 0.309572 0.00601637 7.52467 -3.27693 -0.0464028 -0.533185 -0.205272 
197 1 0.896265 0.409983 0.00296975 1.70121 -3.26076 -0.942318 -0.301048 -0.136674 
163 1 0.0508567 0.409299 0.0488238 1.60486 -3.30022 0.0530179 -0.790445 0.411067 
165 1 0.102123 0.403314 1.00345 0.722677 -3.17066 -0.352351 -0.143531 -0.677777 
168 1 0.0997496 0.459189 0.0523901 2.53382 -3.23539 0.419335 -0.889978 -0.370583 
164 1 1.0005 0.454409 0.0463987 0.889641 -3.18235 -0.163465 -0.183111 -0.0630942 
161 1 0.996662 0.404244 0.000888019 0.666408 -3.35897 -0.0675835 -0.0589625 -0.221178 
162 1 0.0540649 0.448976 -0.000658034 1.79655 -3.22376 0.0163817 0.481275 -0.0792639 
171 1 0.250373 0.400875 0.0522411 0.271451 -3.33116 -0.0611384 -0.167818 -0.0159016 
172 1 0.200403 0.452543 0.0560486 1.12982 -3.23545 0.423569 -0.332008 -0.635112 
166 1 0.152191 0.451412 0.0035182 0.502479 -3.30464 0.104676 0.482998 -0.317361 
569 1 0.198952 0.397626 0.101627 0.466639 -3.28473 0.243043 0.160726 -0.615465 
173 1 0.301694 0.399396 1.00281 0.172137 -3.27692 -0.198509 -0.0176105 -0.159803 
175 1 0.354965 0.400327 0.0514373 0.202151 -3.36033 -0.0308685 -0.206755 0.0597612 
176 1 0.302806 0.45046 0.0525746 0.366457 -3.3145 0.175252 0.0229847 0.0848212 
570 1 0.251504 0.44598 0.100992 0.71512 -3.25175 0.113171 0.395268 0.0561919 
573 1 0.301621 0.400042 0.100178 0.219136 -3.27921 0.176963 -0.417355 -0.363129 
170 1 0.251427 0.448848 0.00458868 0.710647 -3.26285 -0.116778 0.185346 0.0411158 
179 1 0.45627 0.400039 0.049274 0.556355 -3.23451 -0.390953 0.421006 -0.068996 
180 1 0.404104 0.450574 0.051871 0.694833 -3.30446 0.055153 0.0654008 -0.354739 
578 1 0.457472 0.449704 0.094393 1.04355 -3.25397 0.349871 -0.100049 0.39081 
621 1 0.515377 0.493708 0.0990693 5.50452 -3.24108 -0.133608 0.00892836 -0.75049 
219 1 0.463857 0.500118 0.0520913 1.61477 -3.32364 -0.512307 -0.141139 -0.331857 
577 1 0.407581 0.400548 0.0995092 0.705633 -3.28138 -0.417093 0.176765 0.0321712 
585 1 0.619125 0.395259 0.0942565 7.79824 -3.3021 -0.488995 -0.14719 -0.302113 
184 1 0.510155 0.449306 0.0451639 0.562521 -3.32407 -0.0716007 -0.153519 0.194384 
188 1 0.616423 0.445678 0.0430422 7.27496 -3.27038 -0.321129 -0.159675 -0.265761 
582 1 0.567586 0.443895 0.0929332 8.42159 -3.31796 -0.598806 -0.185222 0.100132 
191 1 0.73745 0.41045 0.0549581 8.54455 -3.30173 -0.0460577 -0.518165 0.0121302 
192 1 0.687362 0.456307 0.0581247 6.82599 -3.24548 0.0404983 0.201284 0.0323304 
227 1 0.636749 0.510297 0.0529905 6.60183 -3.26023 0.343523 -0.0631915 0.470585 
231 1 0.74059 0.502069 0.0554215 0.934408 -3.23715 -0.164572 0.599456 -0.139923 
586 1 0.637209 0.457734 0.103228 7.52815 -3.25142 0.177138 0.280723 0.55898 
189 1 0.713077 0.39479 0.988343 6.31966 -3.26752 0.402242 -0.193092 0.458651 
196 1 0.791148 0.454767 0.0519305 0.346144 -3.22089 0.429521 -0.0338587 0.287316 
597 1 0.901879 0.404194 0.101066 1.36142 -3.32748 -0.325953 0.389073 0.187773 
201 1 0.00300392 0.497308 -0.00062967 2.21071 -3.23894 -0.574953 0.922823 -0.602182 
199 1 0.948494 0.405045 0.0490693 0.366295 -3.30056 0.297032 -0.0854243 0.180957 
200 1 0.894231 0.451361 0.0506341 0.712139 -3.23179 0.171686 0.315695 -0.263957 
239 1 0.944413 0.500586 0.0464131 1.40276 -3.32787 0.333275 0.4898 0.357241 
237 1 0.892693 0.502961 0.00217966 0.643064 -3.26926 0.171797 0.136929 -0.0886709 
205 1 0.10352 0.501932 1.00148 0.509698 -3.35777 -0.323828 0.0739422 -0.287324 
203 1 0.047363 0.501738 0.0444577 1.32787 -3.20704 0.589454 0.753134 0.700376 
208 1 0.103534 0.552879 0.0487303 0.759173 -3.27871 -0.327789 -0.444557 -0.000619375 
602 1 0.049669 0.547833 0.094855 1.3221 -3.33483 -0.105102 0.352849 0.41374 
243 1 0.0481366 0.597074 0.0499676 0.938376 -3.25502 0.242398 0.300142 -0.32487 
605 1 0.101185 0.501095 0.0964307 0.59101 -3.27192 0.0347316 0.391282 0.421189 
645 1 0.0933486 0.601513 0.10198 1.87165 -3.27882 0.110631 -0.329805 -0.115477 
202 1 0.0503799 0.552869 -0.0016159 0.492964 -3.33855 0.110904 -0.512734 -0.0590117 
207 1 0.157704 0.502448 0.0529836 1.28634 -3.30755 -0.245848 0.250164 -0.375721 
209 1 0.206367 0.503104 -0.000978518 1.24641 -3.31081 -0.418402 -0.458065 0.247453 
212 1 0.204825 0.553218 0.0531847 0.669974 -3.30569 0.0542542 -0.157324 -0.219645 
210 1 0.25314 0.550141 -0.0017897 0.669632 -3.25552 0.039658 0.313392 0.27827 
606 1 0.149544 0.55337 0.0985165 0.960661 -3.28486 -0.0460107 -0.396595 0.169854 
215 1 0.355146 0.500362 0.0472088 1.03836 -3.34337 -0.237658 0.0073506 0.51555 
211 1 0.251639 0.500766 0.0536612 0.400997 -3.30476 -0.167463 -0.288957 -0.0676403 
216 1 0.299646 0.546938 0.0494729 0.966586 -3.31585 0.374892 0.438405 0.0886458 
255 1 0.349317 0.59954 0.0510529 1.8132 -3.26197 0.599298 -0.561703 -0.285378 
613 1 0.303017 0.495973 0.10356 0.933953 -3.34018 -0.0662652 0.432848 -0.368074 
614 1 0.355242 0.549434 0.0980178 0.554423 -3.33213 0.137493 -0.414458 0.0193666 
653 1 0.306365 0.599138 0.100115 0.671673 -3.29502 -0.714829 0.0668659 0.309923 
220 1 0.40844 0.548101 0.0512357 0.39227 -3.29852 -0.19551 -0.237317 0.0804504 
618 1 0.464922 0.547319 0.100902 6.51408 -3.3527 -0.10427 -0.215986 -0.0586907 
224 1 0.51305 0.547514 0.0468184 5.70772 -3.30522 0.371858 -0.287242 -0.0957252 
223 1 0.565301 0.494674 0.0446966 6.90997 -3.27853 -0.482521 0.00927357 -0.431398 
622 1 0.54272 0.556998 0.108346 6.93721 -3.28672 -0.290851 0.539479 0.33031 
228 1 0.588758 0.558382 0.0575865 7.64308 -3.25488 0.23664 -0.210908 -0.180022 
665 1 0.599329 0.60648 0.10583 0.360413 -3.27071 -0.243103 -0.465228 0.467769 
625 1 0.586461 0.509396 0.102019 6.83482 -3.19767 0.792817 -0.310834 0.599521 
232 1 0.693696 0.555939 0.0495176 1.39126 -3.3348 0.0633856 -0.225859 0.520195 
267 1 0.643448 0.603304 0.0570383 0.779775 -3.25947 0.100134 -0.174399 -0.486632 
630 1 0.747691 0.552753 0.104697 0.564459 -3.31189 -0.200505 0.0878139 -0.408338 
633 1 0.796083 0.504094 0.0989508 0.490822 -3.26816 -0.0300335 -0.126332 0.442907 
235 1 0.845943 0.504807 0.0519068 0.554819 -3.30903 0.250916 -0.130621 -0.240182 
236 1 0.793247 0.549916 0.0487424 1.37091 -3.31241 -0.159026 0.535494 0.477595 
634 1 0.84845 0.549282 0.100012 0.332575 -3.32422 -0.0441702 0.135828 0.0925382 
275 1 0.844229 0.599864 0.0512438 0.698316 -3.2932 0.192331 -0.0661728 0.442628 
234 1 0.846914 0.552157 4.88137e-05 0.382102 -3.26576 -0.318758 0.0272571 0.110202 
204 1 0.994934 0.551966 0.0456482 0.851814 -3.285 0.150285 -0.399587 0.561817 
240 1 0.898015 0.554917 0.0501427 1.10964 -3.30477 -0.066838 -0.515285 0.00898378 
248 1 0.097225 0.648338 0.0526738 0.418256 -3.30828 0.0105684 0.0214927 -0.354939 
244 1 0.996621 0.648627 0.0465256 1.47526 -3.26793 0.107556 0.290192 0.341388 
247 1 0.151318 0.601063 0.0558395 0.894809 -3.29267 -0.00224124 0.122599 -0.619171 
252 1 0.202875 0.651196 0.0526912 0.658007 -3.2614 -0.265632 -0.462385 -0.0314783 
287 1 0.149444 0.694792 0.0496561 0.767388 -3.23969 -0.161775 0.444563 -0.198005 
649 1 0.205022 0.598688 0.102191 0.713349 -3.30253 0.195209 0.308358 -0.132954 
251 1 0.25313 0.603924 0.0505836 0.856127 -3.31963 0.38023 -0.350169 0.345524 
256 1 0.30676 0.650629 0.05302 0.699434 -3.29805 -0.134952 0.222898 -0.0767411 
291 1 0.25051 0.697894 0.0523334 0.662312 -3.29631 0.365068 0.230184 -0.0555747 
654 1 0.35802 0.649037 0.103135 6.62907 -3.29238 0.0778779 -0.34069 -0.200022 
650 1 0.253625 0.651708 0.101716 0.936761 -3.27386 -0.553466 -0.451685 -0.243986 
693 1 0.305737 0.694818 0.101866 5.28242 -3.21315 0.0413389 0.448683 -0.417115 
254 1 0.352564 0.644064 0.00234221 0.757811 -3.2402 0.282645 0.347235 -0.140067 
259 1 0.464431 0.595107 0.0486302 6.25698 -3.27146 -0.0771386 0.0122725 -0.0296896 
661 1 0.493653 0.608022 0.107329 6.84473 -3.26019 0.467983 -0.0143022 -0.276242 
657 1 0.413278 0.595282 0.0963373 7.18801 -3.35207 -0.39652 0.192794 0.246262 
260 1 0.403124 0.644322 0.0499737 6.56213 -3.29936 0.275674 -0.033684 0.231752 
299 1 0.445689 0.70243 0.0565623 6.16098 -3.26357 -0.203554 0.121208 0.635393 
697 1 0.394944 0.707148 0.106408 5.99854 -3.24603 0.285794 -0.0586123 -0.0747851 
658 1 0.443156 0.657504 0.105165 6.32687 -3.29638 0.0392664 -0.0310971 -0.0469147 
297 1 0.40828 0.688631 1.00361 6.12711 -3.2635 -0.266503 0.774806 -0.312016 
263 1 0.54527 0.606471 0.0578306 6.09904 -3.23786 -0.465577 0.36139 0.298848 
264 1 0.494295 0.653063 0.0568201 6.34897 -3.20033 -0.0549562 0.510439 0.790911 
268 1 0.600793 0.65452 0.0555977 0.786956 -3.25533 -0.278707 0.198352 -0.227738 
662 1 0.552276 0.656264 0.103025 0.656021 -3.3071 -0.416447 -0.00871761 0.305874 
705 1 0.602734 0.704151 0.101507 0.425992 -3.2571 -0.520072 0.0381213 0.103477 
271 1 0.74566 0.603042 0.0536135 0.485155 -3.32599 0.204846 -0.248185 -0.310813 
272 1 0.692351 0.652063 0.0512274 0.912357 -3.21472 -0.0678542 -0.563757 0.0721688 
307 1 0.651438 0.702956 0.0528199 0.420193 -3.2333 -0.331425 0.426141 -0.175122 
309 1 0.7004 0.700737 1.00438 0.784256 -3.24824 -0.521057 0.555853 -0.556381 
270 1 0.745441 0.651239 0.00678625 0.940458 -3.26971 0.175301 -0.4783 -0.483893 
276 1 0.799023 0.64942 0.0526218 0.637579 -3.2987 0.0947722 0.208497 0.17752 
713 1 0.797556 0.699166 0.0993416 0.878747 -3.28432 -0.00220267 0.0921073 -0.0886138 
279 1 0.946188 0.60268 0.049727 0.510425 -3.2337 -0.079203 -0.262959 0.298415 
280 1 0.896802 0.649334 0.0588241 1.77352 -3.1993 0.365196 -0.157926 -0.684673 
319 1 0.951544 0.699721 0.0538699 1.21353 -3.30382 -0.457906 -0.130256 -0.202969 
678 1 0.948507 0.647226 0.104268 1.42511 -3.25614 0.372613 0.292006 -0.266911 
717 1 0.905696 0.699619 0.104277 1.80943 -3.28929 -0.531172 0.13665 -0.0640142 
277 1 0.894388 0.599704 1.00094 0.869536 -3.26736 0.116475 0.0747745 0.0315845 
283 1 0.0470736 0.701584 0.0503184 0.593601 -3.34152 -0.288752 -0.293504 -0.0470486 
288 1 0.0978797 0.749408 0.047638 0.395708 -3.33214 -0.00530083 -0.0177336 0.175702 
323 1 0.0493167 0.803756 0.0451023 2.41372 -3.31643 0.15379 -0.256815 0.430273 
282 1 0.0460992 0.749452 -0.000717354 0.470344 -3.28262 -0.00301019 -0.321844 0.403859 
289 1 0.206403 0.697126 -0.000484523 1.03343 -3.27808 -0.651766 0.444892 0.527058 
292 1 0.196438 0.745588 0.048757 1.27326 -3.31416 0.523048 0.0640491 0.0265666 
729 1 0.205287 0.795402 0.0924032 6.25673 -3.34472 0.0572464 -0.253716 0.420722 
327 1 0.147017 0.796457 0.0476331 0.805799 -3.26944 -0.108652 0.0155669 -0.157383 
331 1 0.250006 0.794668 0.0407578 7.08973 -3.20054 -0.279493 -0.215557 0.245476 
689 1 0.1926 0.69742 0.099585 2.54759 -3.29155 0.620512 0.00801009 0.359071 
295 1 0.357832 0.702331 0.0521896 6.19629 -3.31484 -0.0223179 -0.242307 -0.189738 
690 1 0.25417 0.74204 0.0990749 5.86045 -3.30897 -0.173607 0.265424 0.0405111 
296 1 0.301718 0.750122 0.0499562 1.10033 -3.27642 0.144427 -0.153653 -0.293461 
335 1 0.348556 0.804432 0.0556711 2.26713 -3.29885 -0.310045 -0.43025 -0.450847 
733 1 0.291028 0.800299 0.101779 1.83799 -3.31621 -0.201891 -0.050065 0.238685 
290 1 0.253549 0.749748 -0.0045099 0.91446 -3.2481 -0.653116 -0.184729 0.396442 
300 1 0.402639 0.754846 0.0509776 6.50224 -3.20789 -0.491604 -0.0331953 0.694098 
698 1 0.44987 0.75716 0.104084 0.915686 -3.28617 0.294007 -0.605931 -0.16146 
339 1 0.450714 0.801242 0.0541486 0.584956 -3.23079 -0.370367 0.321368 -0.309428 
304 1 0.497869 0.75391 0.0538226 0.328136 -3.29336 0.0103571 -0.342964 -0.0871132 
303 1 0.550283 0.706527 0.0541646 0.712343 -3.32754 -0.299644 -0.149779 0.118643 
701 1 0.501092 0.703089 0.106717 0.774672 -3.33716 -0.459376 0.0995896 -0.380786 
308 1 0.60064 0.755063 0.0520541 0.250393 -3.33949 -0.0144471 -0.177491 -0.0791661 
702 1 0.548102 0.753796 0.104101 0.26144 -3.28223 0.206957 -0.13749 -0.545256 
343 1 0.547064 0.801279 0.0545471 0.805686 -3.27039 0.0436144 0.0914301 -0.673186 
311 1 0.742366 0.697867 0.0526154 6.5793 -3.14071 0.875744 0.328178 0.280683 
312 1 0.702128 0.751806 0.0512055 0.504719 -3.35403 -0.144206 0.453357 -0.0182727 
306 1 0.649763 0.756522 0.00210296 1.03658 -3.28787 0.138497 -0.351969 0.640098 
347 1 0.65053 0.80396 0.0511277 0.170288 -3.28566 0.0182297 -0.277966 0.180371 
706 1 0.649099 0.751898 0.102364 0.538183 -3.30372 0.271603 0.701722 -0.244462 
315 1 0.851831 0.696673 0.056014 1.73512 -3.28166 -0.0920262 0.495408 -0.241031 
316 1 0.801061 0.747274 0.0500933 1.61302 -3.26027 0.200075 0.176487 -0.0324149 
714 1 0.847916 0.752123 0.0996639 0.7457 -3.29019 -0.245926 -0.303513 0.334916 
355 1 0.849115 0.8023 0.051525 0.390595 -3.30324 -0.236587 -0.16078 -0.259676 
314 1 0.847295 0.75149 -0.00194812 6.50184 -3.3019 -0.172188 0.223185 0.327208 
313 1 0.794556 0.701005 0.00665565 5.91089 -3.28633 0.430309 -0.303133 -0.197236 
353 1 0.80175 0.806062 1.00176 0.992338 -3.29169 -0.173528 -0.228765 -0.283931 
284 1 -0.00237478 0.75033 0.0559367 1.00051 -3.28078 0.386849 0.137281 -0.552071 
320 1 0.897575 0.749285 0.0548838 0.935387 -3.28653 -0.124321 -0.132222 -0.638758 
757 1 0.896383 0.801791 0.0990365 0.694273 -3.2204 0.0308735 -0.0294806 0.39004 
718 1 0.946421 0.752543 0.102972 0.672121 -3.22866 0.461638 0.1048 0.224102 
328 1 0.102838 0.853259 0.0513452 2.05926 -3.30908 0.244049 -0.34451 -0.182161 
324 1 -0.00709665 0.84932 0.0448322 6.38364 -3.30879 0.439548 0.13506 0.57475 
363 1 0.0510619 0.898543 0.047897 0.589106 -3.27359 -0.945257 -0.0899938 0.303242 
332 1 0.196537 0.842068 0.0440381 7.68744 -3.26529 0.457361 0.360458 -0.126253 
371 1 0.240431 0.896914 0.0500843 7.26884 -3.2866 0.628865 -0.0487786 0.411936 
329 1 0.196224 0.797462 -0.00751662 1.34153 -3.32814 0.164083 0.0132871 0.300023 
326 1 0.144941 0.847125 -0.00319182 1.31705 -3.30738 0.32872 0.229886 0.251381 
369 1 0.206231 0.895599 0.997226 6.36768 -3.26302 -0.62907 0.0855475 -0.186529 
336 1 0.290387 0.843927 0.0569416 7.00037 -3.24532 -0.0279364 0.694866 -0.413952 
734 1 0.3465 0.853117 0.102802 0.9533 -3.27084 -0.0530362 -0.610543 0.0232389 
334 1 0.341838 0.848002 0.00268094 6.3638 -3.28979 0.243711 0.378644 0.273747 
330 1 0.253823 0.844917 0.998778 2.02076 -3.31396 -0.0757557 0.147173 -0.159773 
340 1 0.400635 0.849599 0.0488869 1.70846 -3.28248 -0.337075 0.311945 0.0943861 
344 1 0.495991 0.850279 0.0566512 1.42322 -3.23993 0.0830016 0.317456 -0.630486 
348 1 0.60097 0.852453 0.0499471 0.317836 -3.29982 0.00928617 0.306276 -0.263627 
742 1 0.552708 0.849443 0.0972014 1.66334 -3.17447 -0.208832 0.792496 0.328443 
342 1 0.54517 0.852616 0.00425215 0.874893 -3.29061 0.303067 -0.246522 -0.178559 
351 1 0.754494 0.803377 0.0521413 0.827433 -3.30149 -0.399892 -0.164981 0.0225232 
352 1 0.69889 0.852922 0.0485954 1.0285 -3.22817 0.440928 -0.325274 0.347965 
346 1 0.649104 0.851932 1.00094 0.301129 -3.26423 0.0061773 0.205249 -0.192952 
387 1 0.656522 0.904337 0.0503249 6.27418 -3.3211 -0.686049 0.226578 -0.142514 
349 1 0.701617 0.806221 0.00475354 0.997609 -3.29292 0.376092 -0.445428 -0.422383 
389 1 0.698674 0.9031 -0.00224218 0.626954 -3.21908 -0.454277 -0.111468 -0.338914 
356 1 0.798104 0.854185 0.0516366 0.823353 -3.31458 -0.175635 0.0855876 -0.0152254 
395 1 0.854376 0.899301 0.0519413 0.901834 -3.28249 0.347063 -0.0024222 -0.328948 
350 1 0.751058 0.856034 0.9981 0.897888 -3.2586 -0.00534416 -0.377276 0.118757 
354 1 0.852795 0.852283 1.00252 0.46891 -3.28324 0.0943108 0.0361708 -0.0324127 
359 1 0.94854 0.79754 0.053811 0.800918 -3.26273 0.16755 0.10447 -0.270242 
360 1 0.903876 0.848556 0.050914 0.883485 -3.32305 0.145207 0.385467 -0.0275791 
761 1 -0.00106769 0.895817 0.102272 7.24563 -3.22305 0.027942 0.19216 -0.538675 
397 1 0.903994 0.902359 0.000432604 0.880984 -3.24352 -0.299442 0.22084 0.702702 
399 1 0.95403 0.904356 0.0529949 2.44599 -3.24186 -0.400048 -0.375456 -0.451756 
357 1 0.899479 0.800127 0.00174582 0.329904 -3.3137 -0.00157619 -0.123663 0.0104149 
405 1 0.0933653 0.00214309 0.0985997 1.10651 -3.37779 0.177384 0.0949608 0.0444381 
765 1 0.103154 0.900249 0.0967458 1.17875 -3.24795 -0.00802665 -0.463405 -0.126033 
368 1 0.100719 0.947514 0.0491662 0.819188 -3.27264 -0.312034 0.353836 -0.080135 
762 1 0.0509649 0.945062 0.0985314 2.59481 -3.26803 -0.277754 0.641128 -0.409529 
1 1 0.00679227 0.000340075 0.992915 1.42233 -3.26474 -0.80593 -0.0839404 0.160387 
365 1 0.0998075 0.900513 1.00164 0.970713 -3.2631 0.401939 -0.192103 -0.11501 
367 1 0.159693 0.901489 0.0501984 6.41219 -3.30712 -0.244691 -0.416676 -0.112163 
372 1 0.205362 0.95358 0.0484768 2.06886 -3.21481 0.153667 0.0693939 0.572363 
766 1 0.149747 0.952522 0.0965339 1.16226 -3.30642 -0.232152 0.188784 0.344291 
375 1 0.342508 0.896451 0.0517977 1.27777 -3.27866 0.501966 -0.0549724 -0.357839 
376 1 0.299652 0.948108 0.0512294 1.01731 -3.28986 -0.462603 0.00817355 0.0429337 
774 1 0.349672 0.952384 0.0996609 0.868223 -3.18292 -0.152689 -0.441341 -0.229606 
373 1 0.297607 0.89971 0.998793 6.30178 -3.27992 0.14837 -0.150527 0.164734 
379 1 0.44914 0.900311 0.0553791 0.58992 -3.32004 0.0812094 0.0921426 -0.544491 
380 1 0.399237 0.950835 0.0522172 0.513822 -3.31849 -0.0622801 -0.0904736 -0.433901 
778 1 0.443295 0.950236 0.103606 0.845898 -3.26074 0.272558 -0.0176776 -0.12998 