ITEM: TIMESTEP
15250
ITEM: NUMBER OF ATOMS
4000
ITEM: BOX BOUNDS pp pp pp
3.0244990259228395e+00 3.7475500974076589e+01
-3.4630605981818237e+00 4.3963060598180959e+01
-2.8342421833874171e-01 4.0783424218339285e+01
ITEM: ATOMS id type xs ys zs c_csym c_peratom fx fy fz 
405 1 0.039948 0.0721839 0.0924889 1.98572 -3.33592 -0.171007 -0.275169 0.396689 
7 1 0.0946745 0.0571885 0.045653 1.16495 -3.32474 0.217074 0.922658 0.0273896 
3 1 0.0251019 0.0254667 0.0497524 0.930604 -3.21759 0.917355 0.260522 -0.943372 
2 1 0.0386627 0.0693787 0.993913 1.54785 -3.30566 -0.361754 -0.528373 0.354256 
5 1 0.0871702 0.01643 0.00209762 0.46359 -3.31599 -0.239613 -0.276733 -0.504537 
766 1 0.0891597 0.0211713 0.0966989 0.895262 -3.34674 -0.141978 -0.0660378 0.310938 
12 1 0.165014 0.0957849 0.0485995 0.607849 -3.34636 -0.176364 -0.452795 -0.146246 
11 1 0.217327 0.0426172 0.0451517 1.51077 -3.34044 -0.663623 -0.179517 0.538952 
9 1 0.154963 0.0515151 0.998606 0.510906 -3.34616 -0.157575 0.226774 0.125306 
409 1 0.156772 0.05382 0.0956872 0.5599 -3.29256 -0.511914 -0.416614 -0.254876 
410 1 0.223441 0.0825905 0.098487 1.14175 -3.21947 -0.312004 0.293592 -0.0837722 
372 1 0.142845 0.0109472 0.0468692 0.484099 -3.33705 0.579306 -0.0568487 0.118519 
16 1 0.277642 0.0775921 0.0529722 0.787436 -3.24253 -0.100523 -0.28599 -0.583718 
15 1 0.326809 0.0255124 0.0514051 0.278382 -3.27877 -0.268922 0.00857873 -0.00392478 
413 1 0.268399 0.0337427 0.104739 1.85121 -3.26658 0.226574 0.22943 -0.752112 
414 1 0.332132 0.0676664 0.0992719 0.705436 -3.28943 0.20884 0.0266013 0.344849 
20 1 0.38762 0.0610614 0.0495895 0.810774 -3.32195 0.461573 0.356635 -0.081805 
19 1 0.449052 0.00974148 0.0515886 1.81288 -3.25984 -1.05804 -0.366023 -0.486127 
418 1 0.451846 0.0509541 0.0973079 1.15914 -3.29285 -0.0967459 -0.143593 0.570937 
17 1 0.383924 0.0170511 0.00402188 0.808495 -3.37757 0.25607 -0.295031 -0.151401 
421 1 0.502398 0.00144061 0.0977 0.985914 -3.2482 -0.353123 -0.067006 0.915376 
417 1 0.384851 0.0204204 0.0990252 0.894846 -3.3261 0.192525 -0.27686 0.192597 
24 1 0.506248 0.0447786 0.0442967 1.8249 -3.25647 0.0860616 0.263301 0.539452 
28 1 0.618312 0.0268233 0.0509255 0.999808 -3.3405 -0.238218 0.519109 -0.196753 
22 1 0.558062 0.0371903 0.997982 0.921354 -3.28993 0.556083 -0.127213 0.321321 
65 1 0.626949 0.0748589 0.00227435 1.19508 -3.32088 -0.528162 -0.791186 -0.229732 
23 1 0.55333 0.993032 0.0502969 0.719411 -3.28073 0.468008 0.547202 -0.198419 
422 1 0.558254 0.0387232 0.0999371 1.53743 -3.30934 0.643766 -0.0160096 -0.236794 
32 1 0.737056 0.0172693 0.047678 0.719649 -3.33515 -0.701699 -0.315768 0.152757 
67 1 0.682298 0.064557 0.0518355 0.716384 -3.31657 0.259346 -0.0876483 -0.275706 
469 1 0.739597 0.0593808 0.101889 0.446418 -3.34996 0.104367 0.149153 -0.27162 
426 1 0.676266 0.0186296 0.0971552 1.241 -3.29336 0.667913 0.602212 0.21655 
465 1 0.627549 0.0709068 0.096159 1.05423 -3.27711 -0.253681 0.234894 0.265064 
30 1 0.7364 0.0597761 0.997551 0.736402 -3.2897 0.18879 -0.144504 0.175527 
36 1 0.79712 0.0504425 0.0488309 1.09083 -3.29386 -0.0402428 0.483777 0.179348 
35 1 0.848297 0.00256394 0.0449281 0.915054 -3.33431 -0.197528 0.0970954 0.512509 
434 1 0.849398 0.0454839 0.0954413 1.15134 -3.36186 0.382305 -0.0496465 0.317607 
430 1 0.785423 0.00930308 0.100251 1.07719 -3.28582 0.465504 0.19807 -0.339701 
33 1 0.78872 0.0124067 0.995429 0.862323 -3.22432 -0.523774 -0.495554 0.612858 
4 1 0.98236 0.076597 0.0451624 1.15095 -3.31258 -0.280421 -0.12392 0.251631 
40 1 0.913046 0.0405457 0.0473846 0.61442 -3.31136 -0.502521 0.244151 -0.0885216 
401 1 0.972312 0.0341885 0.0911053 1.73582 -3.18915 -0.469843 0.678915 1.51393 
437 1 0.904184 0.997758 0.0975371 0.481954 -3.32761 -0.323391 -0.00614661 0.109657 
438 1 0.915247 0.0791734 0.0992169 1.48609 -3.29812 0.679564 0.334037 -0.444049 
38 1 0.968626 0.0338824 0.997693 0.665945 -3.38904 0.106482 -0.101236 -0.218174 
77 1 0.918965 0.0843334 0.0024906 0.519989 -3.35194 -0.0260121 -0.254783 -0.476729 
8 1 0.0485925 0.110476 0.0418298 1.30979 -3.26289 -0.509888 -0.255111 0.49376 
47 1 0.107798 0.143512 0.0483088 0.655907 -3.29332 0.60799 0.171929 -0.219248 
406 1 0.109485 0.102411 0.0949275 1.71075 -3.30758 -0.647649 0.0647346 0.260336 
445 1 0.0514205 0.150448 0.0963648 0.734088 -3.30812 0.0252497 -0.344922 0.378069 
52 1 0.171347 0.178966 0.0497639 1.09382 -3.33781 0.207535 -0.177711 -0.349408 
51 1 0.227582 0.130637 0.0554818 2.01947 -3.24981 -0.19555 -0.885346 -0.672656 
449 1 0.169988 0.139077 0.0988314 1.2937 -3.28971 -0.229433 -0.282292 0.424067 
450 1 0.236105 0.168545 0.102141 0.855225 -3.27483 -0.217963 0.0387008 0.422113 
49 1 0.168645 0.131993 0.99873 1.16109 -3.29935 0.582303 0.499607 0.306788 
55 1 0.338005 0.113548 0.0491437 0.97977 -3.28156 0.513321 -0.201563 -0.215963 
56 1 0.284647 0.165414 0.0501799 1.70484 -3.17928 0.907746 -0.448836 0.338478 
453 1 0.286922 0.11576 0.100915 1.07537 -3.26347 -0.0191072 0.551332 0.311936 
454 1 0.348489 0.149418 0.0987946 1.13321 -3.34145 -0.0263924 0.664608 0.424367 
59 1 0.45203 0.0943697 0.0560429 2.52982 -3.33553 0.127321 0.364331 -0.732389 
60 1 0.4038 0.14487 0.0496117 0.780139 -3.33255 -0.0407284 -0.134205 -0.0132295 
58 1 0.456161 0.139939 -0.00014555 0.776957 -3.29285 0.436598 -0.0903294 0.138739 
458 1 0.462144 0.140577 0.0993754 0.621147 -3.35928 -0.279757 -0.169925 -0.146823 
457 1 0.39548 0.100956 0.103071 0.974059 -3.31112 0.150335 0.181473 -0.351801 
63 1 0.569463 0.0830227 0.0505051 0.730709 -3.30704 -0.0120594 -0.429495 0.0924781 
61 1 0.509778 0.0906855 0.00361704 1.33259 -3.27408 -0.457306 -0.466726 -0.612026 
64 1 0.51698 0.129631 0.0488825 0.624275 -3.32212 0.0129992 0.556384 0.604163 
103 1 0.586322 0.167016 0.048285 0.533729 -3.33816 -0.329746 0.09354 0.43366 
461 1 0.513819 0.0863741 0.101497 0.922252 -3.27699 0.120159 0.597795 -0.343595 
462 1 0.577473 0.125713 0.0979925 0.533365 -3.38896 0.0260354 -0.0994635 0.173115 
68 1 0.637714 0.116113 0.049194 0.632404 -3.32291 -0.329747 0.0276076 0.202073 
72 1 0.699082 0.151337 0.0469366 1.25376 -3.26122 -0.105679 0.0694265 0.350958 
71 1 0.746577 0.0983587 0.0501668 1.38686 -3.29183 -0.524278 0.512984 0.619507 
505 1 0.649417 0.157752 0.0967191 2.80217 -3.27814 -1.02361 -0.0587761 0.110328 
466 1 0.691469 0.107392 0.105973 2.04482 -3.32596 -0.0400754 0.0914878 -0.586976 
75 1 0.861223 0.0911685 0.0481976 0.785965 -3.3173 -0.139868 -0.445116 0.176266 
473 1 0.806336 0.0998921 0.10033 1.44424 -3.29782 -0.224746 -0.746039 0.0720232 
76 1 0.810919 0.138215 0.0519175 0.444188 -3.33007 -0.0982 0.691599 -0.0859664 
73 1 0.798233 0.096933 0.0065312 1.78405 -3.24183 0.463386 0.163335 -0.926657 
470 1 0.753964 0.144178 0.0995586 0.645148 -3.33313 -0.123012 0.314283 0.0301347 
477 1 0.871913 0.131656 0.101004 0.283136 -3.32611 -0.0978084 0.160904 0.217852 
74 1 0.866129 0.134913 0.00321333 0.736648 -3.27629 0.173275 0.311667 0.0426293 
43 1 0.998211 0.160683 0.0501745 0.801545 -3.32536 -0.543606 -0.417789 -0.27389 
79 1 0.926103 0.124191 0.052925 0.593459 -3.32799 0.330466 0.0284262 -0.0766972 
80 1 0.878132 0.175597 0.0514901 0.428995 -3.34137 -0.381483 -0.130636 0.0821278 
402 1 0.986037 0.114987 0.098428 0.735046 -3.37303 -0.138575 0.0924953 -0.223964 
441 1 0.935962 0.166578 0.09893 0.272677 -3.34768 0.279811 0.0384684 0.085376 
41 1 0.983801 0.118863 0.00236449 1.02556 -3.30908 0.276523 0.0220367 -0.463313 
78 1 0.936918 0.165788 0.00624406 1.43858 -3.31745 -0.0203086 0.255694 -0.410869 
446 1 0.115235 0.181205 0.101649 1.17598 -3.3001 0.40158 0.415267 -0.140081 
48 1 0.0625387 0.192767 0.0480916 0.368535 -3.27836 -0.172652 -0.209912 -0.0966982 
42 1 0.00185031 0.201371 0.999404 0.278249 -3.36999 -0.343211 0.252294 0.0880838 
83 1 0.0126248 0.241301 0.0513505 0.449667 -3.31939 -0.186063 0.185427 -0.654236 
485 1 0.068976 0.230924 0.100905 0.473202 -3.28279 0.134523 0.339221 -0.145743 
85 1 0.0679314 0.231259 0.997498 0.778412 -3.32936 -0.10186 0.66309 0.0273268 
442 1 0.00511298 0.200896 0.0966407 0.722241 -3.30115 -0.618119 -0.252307 0.596633 
46 1 0.116634 0.183464 0.996366 0.600714 -3.2528 0.284802 0.341055 0.815798 
87 1 0.122961 0.2261 0.0491003 0.318728 -3.33539 0.362243 0.230215 0.117695 
91 1 0.2398 0.214462 0.0533582 1.11132 -3.21161 -0.605748 -0.427103 -0.587281 
92 1 0.188191 0.25973 0.0492528 0.391921 -3.32132 -0.230888 0.0495704 0.170111 
86 1 0.131239 0.267618 0.000483592 0.228321 -3.34358 0.186749 -0.0539329 -0.24142 
489 1 0.183278 0.215747 0.0982772 1.01181 -3.31429 -0.578211 0.286761 0.315956 
89 1 0.181891 0.218668 0.996879 0.57047 -3.35202 0.243565 0.25988 0.510361 
486 1 0.130164 0.269677 0.103293 0.865248 -3.32732 0.270512 -0.266363 -0.358829 
490 1 0.244143 0.252133 0.101595 0.413997 -3.25161 0.22859 0.474152 -0.246196 
95 1 0.347624 0.194889 0.0495003 1.18209 -3.33613 0.724704 0.182033 0.241274 
96 1 0.302017 0.244714 0.0463322 1.54449 -3.28183 0.67175 0.707265 0.696872 
493 1 0.292977 0.205388 0.103996 1.6374 -3.23877 0.77153 -0.681484 -0.672977 
94 1 0.361651 0.237462 0.00223384 0.409962 -3.3228 0.0369349 0.0171444 -0.156222 
494 1 0.359652 0.238853 0.100106 0.540734 -3.33805 0.0118456 -0.570065 -0.382165 
99 1 0.465675 0.183165 0.0482182 0.46649 -3.29248 0.531518 -0.113592 0.43058 
100 1 0.417819 0.230674 0.0508232 0.397985 -3.35121 0.0989 0.270771 -0.065765 
139 1 0.478914 0.271947 0.0519528 1.23169 -3.34229 0.300612 -0.580514 -0.248507 
497 1 0.409489 0.189275 0.0961178 0.846292 -3.32038 -0.0746989 -0.212683 0.172154 
97 1 0.41267 0.189691 0.00286455 0.850715 -3.29845 -0.327654 0.118798 -0.345138 
98 1 0.477287 0.227091 0.997004 1.13348 -3.28222 -0.0461116 -0.13385 0.811234 
498 1 0.476361 0.226059 0.10022 0.437217 -3.36687 0.050436 -0.00144134 -0.24338 
104 1 0.532259 0.217133 0.0481525 0.643087 -3.36296 -0.0255486 0.473004 0.185439 
108 1 0.592812 0.261193 0.0493634 1.6076 -3.2635 0.0362778 -0.946535 -0.460261 
502 1 0.593512 0.210814 0.0975204 0.924834 -3.32747 -0.26507 -0.0590513 0.0502425 
501 1 0.527458 0.177569 0.0978207 0.455588 -3.34027 -0.194111 -0.235756 -0.00892823 
541 1 0.542355 0.263473 0.0979148 0.618196 -3.26002 -0.789559 -0.535819 0.0636239 
107 1 0.64842 0.210303 0.0514361 2.01553 -3.24945 -0.641952 -0.85764 -0.274248 
509 1 0.705446 0.194866 0.10141 0.896492 -3.23456 0.0598006 0.499666 -0.657737 
112 1 0.708983 0.241975 0.0505932 0.439833 -3.25851 0.818777 0.0719843 0.0853561 
506 1 0.654981 0.251315 0.097651 1.02989 -3.29487 -0.0223124 -0.319714 0.495922 
109 1 0.701022 0.19936 0.00364194 1.05257 -3.34697 -0.0399889 -0.0450027 -0.468669 
115 1 0.827419 0.22345 0.0474941 0.729629 -3.35778 0.405121 0.0755243 0.336454 
111 1 0.761241 0.191195 0.0538498 1.04495 -3.35305 0.146339 -0.203607 -0.189312 
517 1 0.837211 0.266142 0.0951649 1.16157 -3.30139 -0.0420485 -0.114111 0.559966 
474 1 0.823233 0.181342 0.103575 0.666491 -3.35512 -0.301541 0.0588591 -0.48625 
513 1 0.773649 0.232386 0.102553 1.04718 -3.35588 -0.496177 0.0745047 -0.271154 
110 1 0.772131 0.22952 -0.000614092 1.19462 -3.29494 -0.444635 0.396586 0.189049 
44 1 0.942044 0.210557 0.0516573 0.88606 -3.33221 0.430196 -0.108139 -0.182825 
81 1 0.946653 0.252639 0.00130349 1.66374 -3.28594 0.753686 -0.429565 -0.25297 
119 1 0.899227 0.260764 0.0495481 1.03481 -3.28221 -0.819756 -0.285221 0.294456 
478 1 0.889333 0.216621 0.102085 0.549624 -3.31473 -0.332622 0.035009 -0.404298 
481 1 0.954594 0.251117 0.100993 0.270535 -3.31263 -0.298453 -0.180606 -0.0561378 
88 1 0.0778871 0.276962 0.0532254 0.65675 -3.29278 -0.370547 -0.205436 -0.271314 
123 1 0.0257623 0.325071 0.054937 0.775185 -3.3734 0.591081 0.414059 -0.330331 
128 1 0.100023 0.358519 0.0493132 2.71336 -3.30909 -0.954329 0.0522182 0.072314 
482 1 0.0197913 0.279564 0.0996441 1.14728 -3.29942 0.156702 0.5651 0.386486 
525 1 0.0835484 0.31909 0.105986 1.27563 -3.28716 0.0531138 -0.413854 -0.886326 
82 1 0.0188584 0.282791 0.999763 0.512308 -3.33597 0.0465125 -0.107974 0.295898 
125 1 0.0836985 0.31556 0.000221973 0.911384 -3.30709 -0.0827923 0.528495 0.207235 
127 1 0.139837 0.310748 0.0511772 0.406635 -3.30872 0.514619 -0.0315213 -0.00221268 
132 1 0.21006 0.345615 0.0515059 0.727831 -3.31424 -0.901243 -0.332192 -0.21908 
526 1 0.153973 0.350433 0.10454 1.4679 -3.2982 -0.457513 0.0148117 -0.420899 
529 1 0.194728 0.301233 0.101594 0.527154 -3.34621 0.32111 -0.00572085 -0.0687269 
131 1 0.25316 0.292643 0.0529243 0.86247 -3.34459 0.184103 0.36973 -0.0532802 
136 1 0.317117 0.329951 0.0505806 0.419068 -3.32168 0.371831 0.156394 0.247707 
533 1 0.31496 0.286108 0.101604 0.811779 -3.26258 -0.676279 -0.211836 -0.777901 
130 1 0.264214 0.340152 0.00221315 0.525238 -3.29379 -0.208783 -0.3324 -0.485785 
135 1 0.37195 0.280277 0.0490364 0.797926 -3.31729 -0.518182 -0.0929769 -0.156389 
534 1 0.377634 0.320169 0.0968652 1.81643 -3.26219 -0.146219 0.735107 0.0560685 
530 1 0.262852 0.335503 0.100475 0.319231 -3.29518 -0.292266 0.0686876 0.152111 
140 1 0.429645 0.318575 0.04479 1.46544 -3.29902 0.488312 0.321937 0.554925 
538 1 0.486748 0.312226 0.0994453 0.470142 -3.33492 -0.284691 0.340249 0.402101 
577 1 0.431662 0.361224 0.100729 1.338 -3.33388 0.581445 -0.0875806 -0.307934 
144 1 0.498403 0.356219 0.0516638 0.727245 -3.309 -0.600046 0.203644 -0.497214 
137 1 0.426865 0.273095 0.999828 0.634977 -3.2911 0.257775 0.0945099 0.0804372 
537 1 0.423299 0.27426 0.101097 0.44912 -3.23261 0.584513 -0.127712 -0.276788 
143 1 0.544168 0.309549 0.054297 1.55431 -3.17719 -0.163876 -0.576198 -1.00233 
545 1 0.601267 0.299388 0.0957485 0.861754 -3.25129 0.72792 0.573175 0.755275 
148 1 0.603584 0.346625 0.047402 2.58803 -3.27952 0.577755 -0.129498 0.251886 
542 1 0.552164 0.350146 0.0975115 1.18223 -3.25822 0.0706311 0.164865 1.22893 
147 1 0.658843 0.292137 0.0510921 0.24351 -3.27797 0.127548 0.249383 -0.215198 
151 1 0.725405 0.323293 0.05235 0.711853 -3.26994 -0.0649644 0.296394 -0.481442 
549 1 0.66902 0.33423 0.102047 0.56524 -3.33625 -0.13839 -0.161254 -0.405779 
510 1 0.721005 0.285189 0.100111 0.880196 -3.3198 -0.264649 -0.822848 0.474173 
553 1 0.738899 0.364421 0.100815 0.730834 -3.29027 -0.432208 0.320469 -0.0422626 
116 1 0.777605 0.273633 0.0480108 0.302679 -3.34536 -0.0840632 0.0540498 -0.098359 
120 1 0.844065 0.306806 0.050197 0.692768 -3.36384 -0.0353768 0.693331 -0.327992 
153 1 0.775904 0.318773 0.996195 3.06249 -3.23117 0.766963 -0.170128 0.823017 
155 1 0.789766 0.356228 0.0482367 0.840119 -3.35736 0.730436 0.261526 0.0437846 
157 1 0.849694 0.352091 0.998377 0.392181 -3.36121 -0.0866375 -0.213505 0.318546 
514 1 0.782761 0.317095 0.099703 0.502484 -3.26041 0.703787 -0.382068 0.156756 
557 1 0.848379 0.350708 0.103266 0.918953 -3.34236 0.320049 -0.33763 -0.559861 
84 1 0.96134 0.295026 0.0508703 0.708712 -3.30003 -0.149586 -0.393855 -0.150457 
159 1 0.911863 0.343767 0.051714 0.583267 -3.3096 -0.495305 -0.596944 -0.105906 
121 1 0.969531 0.335442 0.00212174 0.934768 -3.26625 -0.232824 -0.62655 -0.0888953 
518 1 0.901274 0.301795 0.10055 0.366717 -3.31838 -0.10849 -0.038307 -0.0559011 
118 1 0.898782 0.301959 0.994928 1.85295 -3.30455 0.412408 0.36399 0.580752 
521 1 0.968851 0.33024 0.104535 1.15437 -3.30338 0.191958 0.358496 -0.252404 
122 1 0.0315583 0.366667 -0.000729418 0.756396 -3.3069 0.316143 0.389169 0.473058 
522 1 0.034395 0.369306 0.105097 1.21119 -3.30703 -0.0177805 -0.393358 -0.726185 
163 1 0.0417655 0.408214 0.0483009 0.777354 -3.32075 0.0267401 0.129687 -0.00663335 
168 1 0.104689 0.448424 0.0484971 1.63236 -3.28329 -0.0974574 -0.667957 0.0913542 
565 1 0.0975055 0.401615 0.0945625 2.2776 -3.31866 0.434934 0.148234 0.648683 
167 1 0.15608 0.398221 0.0500094 1.29408 -3.24689 -0.0853679 -0.663638 0.068179 
172 1 0.221531 0.426081 0.0509573 1.35138 -3.26581 0.604874 0.523428 -0.0498072 
569 1 0.212628 0.386588 0.100747 0.549903 -3.3159 0.2584 0.180601 0.29173 
566 1 0.164866 0.436911 0.100941 0.710806 -3.34634 -0.166176 -0.271087 0.0773163 
169 1 0.217475 0.386909 -0.000225411 0.615077 -3.33083 -0.33904 -0.0873057 -0.245145 
171 1 0.270089 0.37989 0.0521269 0.257296 -3.24211 0.285231 0.111554 0.010749 
176 1 0.328443 0.415702 0.051042 0.900058 -3.31358 0.531296 0.258791 -0.153369 
573 1 0.324279 0.371743 0.104355 1.19596 -3.32737 0.259221 0.226904 -0.371607 
570 1 0.278432 0.425316 0.10106 0.524445 -3.33057 -0.327175 -0.285219 0.217411 
175 1 0.381224 0.368045 0.0470686 0.39653 -3.31464 -0.156149 0.047565 0.504108 
170 1 0.278298 0.423271 0.997363 0.509052 -3.34313 -0.153954 0.146819 0.275297 
179 1 0.443068 0.404148 0.0471035 0.596383 -3.31597 0.287148 0.283145 0.497221 
180 1 0.393529 0.451131 0.0463881 1.33512 -3.31767 -0.096339 0.604914 0.847346 
578 1 0.450969 0.448552 0.0986608 0.700415 -3.37866 0.0723633 -0.00540525 -0.144421 
574 1 0.385623 0.40965 0.101102 0.528809 -3.33785 0.165337 0.438616 -0.352234 
138 1 0.439275 0.365644 0.000980213 0.675024 -3.28812 0.0749271 -0.432462 -0.350578 
178 1 0.447891 0.44955 0.00104687 1.15665 -3.29936 0.842731 0.0979796 -0.21303 
183 1 0.560717 0.395352 0.0546066 1.60422 -3.27607 -0.303133 -0.261574 -0.502396 
184 1 0.509578 0.440474 0.0524224 0.818355 -3.30961 -0.344382 0.0133874 -0.153794 
187 1 0.623225 0.427984 0.0491522 1.22457 -3.27249 0.462976 -0.145028 0.227884 
581 1 0.498377 0.397646 0.0999461 1.15111 -3.33164 0.357203 0.169382 0.0811578 
585 1 0.576551 0.432739 0.103442 1.71418 -3.28036 -0.666598 -0.243702 0.109669 
546 1 0.618346 0.382521 0.101833 0.569024 -3.38897 0.177029 0.0524572 0.056967 
185 1 0.618367 0.389999 0.000905003 2.39304 -3.27975 -0.631911 -0.885302 0.0109605 
152 1 0.678929 0.374635 0.0502143 0.505614 -3.34392 -0.252109 0.179278 0.40442 
150 1 0.73663 0.368229 1.00002 0.629269 -3.2894 -0.33707 0.016286 0.117351 
550 1 0.686448 0.41668 0.0970056 0.680567 -3.34818 -0.0534539 -0.0770604 0.45426 
156 1 0.744889 0.408274 0.0515046 0.512781 -3.3666 0.200407 -0.0522269 -0.0085492 
593 1 0.755433 0.452316 0.0982472 0.654395 -3.3576 -0.321323 -0.427077 0.0886288 
193 1 0.748714 0.446222 0.000204791 1.20532 -3.28874 0.0781414 0.896668 0.368013 
160 1 0.861302 0.392664 0.0480588 0.567557 -3.34384 -0.277661 -0.627448 0.145783 
195 1 0.814767 0.441437 0.0473291 0.992334 -3.26123 -0.775579 -0.299248 0.76267 
197 1 0.868405 0.433387 0.999208 0.541406 -3.26865 0.2721 0.0382227 0.00819676 
554 1 0.803708 0.398473 0.0999242 0.345594 -3.31621 -0.199558 0.243492 -0.345324 
597 1 0.868464 0.433023 0.0965701 0.537757 -3.26354 -0.245965 -0.144057 0.484419 
124 1 0.978291 0.376005 0.0556572 1.01562 -3.30628 -0.00277428 -0.230783 -0.39559 
158 1 0.921045 0.378001 0.000429568 3.01192 -3.26448 -0.275335 0.979616 0.0164317 
199 1 0.925663 0.424394 0.0514843 0.308455 -3.31618 0.110441 -0.0411781 -0.455511 
561 1 0.980469 0.418741 0.102275 1.12083 -3.24802 0.37009 -0.474437 -0.39939 
558 1 0.920104 0.380154 0.100786 0.92337 -3.28425 -0.294195 0.376423 0.0820647 
161 1 0.981741 0.416578 0.0015133 0.278849 -3.37772 0.073158 0.000373158 -0.184838 
203 1 0.0533607 0.49442 0.0522157 0.758362 -3.29652 0.552355 -0.179567 -0.293817 
605 1 0.11244 0.483465 0.0988882 0.849946 -3.31131 0.32132 0.37216 0.0564732 
602 1 0.0666797 0.537223 0.101623 0.561694 -3.35685 -0.00566896 -0.0103972 -0.0689162 
208 1 0.125112 0.528415 0.0518692 1.00132 -3.34764 -0.542986 -0.0628095 -0.218486 
562 1 0.0471435 0.448231 0.0997996 0.862114 -3.31766 0.384533 0.21681 -0.190625 
202 1 0.0662844 0.538219 0.00280458 0.504678 -3.32362 0.128577 -0.357634 -0.21056 
207 1 0.175047 0.474904 0.0461511 2.94147 -3.22672 -0.590653 0.620532 0.336983 
212 1 0.23054 0.520075 0.0462144 1.04589 -3.34432 0.118895 0.0836536 0.462978 
609 1 0.224544 0.47322 0.0945666 1.84157 -3.28172 0.753397 0.163207 0.565162 
606 1 0.177276 0.522771 0.0996674 0.47734 -3.25296 0.116322 -0.465872 0.0703918 
209 1 0.231707 0.476836 0.00317513 2.09288 -3.28287 -0.273794 -0.482441 -0.778978 
211 1 0.284629 0.46836 0.0498086 0.569764 -3.29594 -0.222465 -0.193363 0.129733 
215 1 0.345168 0.503849 0.0481687 0.532137 -3.32128 0.108588 0.0507961 0.575222 
613 1 0.337735 0.46112 0.0987441 0.367605 -3.30168 0.145684 0.208099 0.141004 
213 1 0.292523 0.513154 0.0002107 0.875092 -3.28953 -0.500617 -0.235507 -0.365176 
610 1 0.282401 0.516031 0.10147 2.13627 -3.34822 0.103283 -0.412757 -0.57724 
614 1 0.351979 0.546197 0.0988652 0.554982 -3.35533 -0.313507 0.029712 0.0973208 
174 1 0.336735 0.461689 0.997054 0.509132 -3.30914 0.0742607 0.231609 0.0734882 
219 1 0.46188 0.496342 0.0472775 2.80101 -3.23236 -0.593708 -1.16317 -0.0506436 
621 1 0.465821 0.528849 0.0983517 1.43423 -3.26338 0.499297 0.359466 0.708418 
220 1 0.408016 0.541349 0.0528525 0.617867 -3.26477 0.0443092 -0.21842 -0.44756 
617 1 0.400704 0.49564 0.10066 0.870798 -3.30446 0.0649379 0.259591 -0.499836 
217 1 0.402985 0.499987 0.00293775 0.836335 -3.34102 -0.0186822 -0.180476 -0.4139 
188 1 0.57675 0.474782 0.0531641 0.718132 -3.29438 0.207435 0.127592 -0.404578 
582 1 0.521959 0.48172 0.0971039 1.01606 -3.32712 -0.491629 0.217108 0.777808 
223 1 0.523736 0.526476 0.0533735 1.93754 -3.2732 1.05189 0.0987367 -0.515873 
586 1 0.593322 0.518084 0.0969577 1.34221 -3.24322 -0.975127 -0.0331298 0.536225 
221 1 0.517085 0.481785 0.999798 0.641032 -3.32437 -0.168107 0.583852 0.102932 
191 1 0.691632 0.456006 0.0503013 0.809014 -3.32969 0.39846 0.415466 -0.0913278 
192 1 0.64833 0.505683 0.0534596 0.951638 -3.27579 -0.104616 0.214433 -0.497511 
231 1 0.713339 0.541369 0.0519099 0.652967 -3.3238 -0.236129 0.331082 0.0703351 
629 1 0.655704 0.549026 0.0988993 0.877821 -3.30918 0.305468 0.69391 0.190404 
589 1 0.639132 0.467815 0.102628 0.651148 -3.27502 0.550978 -0.184615 -0.257037 
590 1 0.707946 0.500768 0.102777 0.61336 -3.31057 -0.170392 -0.0406491 -0.198168 
196 1 0.757255 0.492935 0.0479766 1.19323 -3.34739 0.323935 -0.273932 -0.0717982 
194 1 0.819432 0.480449 0.00382319 1.54017 -3.27993 -0.451187 0.813706 -0.39913 
235 1 0.826295 0.528598 0.0510373 0.409657 -3.32258 -0.0913247 -0.368173 0.126495 
233 1 0.76689 0.538488 0.00440721 1.15122 -3.31709 -0.00211553 -0.418511 -0.302699 
200 1 0.878083 0.475884 0.0515986 0.332986 -3.30944 0.0418947 0.247819 -0.0273159 
594 1 0.817527 0.484894 0.0981011 0.634587 -3.35456 0.474791 0.142817 0.0936379 
633 1 0.773057 0.534372 0.102202 1.14361 -3.29828 -0.000606327 0.503827 -0.39098 
637 1 0.888171 0.519416 0.102182 0.842785 -3.29469 -0.822298 -0.0929475 -0.253822 
201 1 0.998182 0.501315 0.00209162 0.526387 -3.33224 0.0260251 0.159777 -0.147994 
164 1 0.990181 0.457405 0.050411 0.354989 -3.3658 0.0553057 0.280407 -0.00541565 
198 1 0.932598 0.468723 0.999412 0.540652 -3.35636 -0.0243545 -0.188571 0.349259 
239 1 0.944471 0.510486 0.0562214 1.91771 -3.28585 -0.216833 -0.468052 -1.00573 
601 1 0.0021121 0.502662 0.100685 0.806422 -3.28862 -0.263729 -0.327021 0.220997 
598 1 0.931015 0.464547 0.100793 1.00059 -3.31038 0.524147 0.519521 0.0443018 
243 1 0.0713302 0.580193 0.0520239 0.652202 -3.28096 0.290602 -0.296672 -0.0620776 
642 1 0.0818644 0.61603 0.103989 3.6575 -3.25077 0.217027 0.597356 -0.285882 
248 1 0.13011 0.618241 0.0479828 0.918053 -3.26113 0.270495 0.309287 0.807789 
645 1 0.135858 0.572174 0.100501 2.11241 -3.26894 -0.668233 -0.149284 0.18478 
245 1 0.127584 0.578615 0.00154557 0.920631 -3.25315 -0.174489 -0.964563 -0.4157 
247 1 0.182107 0.568196 0.0471457 0.61197 -3.30192 0.441146 0.0275414 0.0646475 
649 1 0.23054 0.56217 0.104171 2.92433 -3.28955 0.971058 0.301413 -0.487554 
251 1 0.246544 0.606345 0.0482233 0.743245 -3.35305 -0.175823 -0.130223 0.215328 
646 1 0.188555 0.611607 0.0949917 1.86349 -3.28446 0.124157 0.479298 0.455807 
249 1 0.186543 0.614056 0.00053981 0.358784 -3.29052 0.437356 0.0369382 -0.00474293 
216 1 0.293217 0.558582 0.0451005 2.01123 -3.30711 -0.252239 -0.529764 0.850566 
255 1 0.35725 0.590755 0.0533083 0.639562 -3.25537 0.0656852 -0.336712 -0.414228 
256 1 0.312802 0.638801 0.0514592 0.617315 -3.31631 -0.432427 0.374758 -0.0442215 
653 1 0.302303 0.596726 0.104253 0.890504 -3.36453 -0.308586 -0.103775 -0.374087 
657 1 0.367333 0.630191 0.0978545 0.531174 -3.2742 -0.0229063 0.356158 0.641509 
214 1 0.352187 0.547204 0.00238356 0.317202 -3.28376 0.225542 0.292299 -0.27333 
253 1 0.303463 0.598935 1.00007 0.269878 -3.32964 -0.038599 0.0250952 -0.31066 
254 1 0.369445 0.635354 0.00280127 0.756467 -3.30074 -0.403474 -0.0288621 0.131668 
259 1 0.426865 0.622049 0.0520381 0.670274 -3.27041 0.29801 -0.0902008 -0.0571929 
224 1 0.476363 0.5736 0.0507037 0.470702 -3.33246 0.130433 0.313422 0.0305927 
618 1 0.416729 0.580655 0.0986847 0.360024 -3.29565 0.300003 0.22917 0.290468 
622 1 0.490302 0.616367 0.0963684 0.815803 -3.34975 -0.285994 -0.0523308 0.463627 
227 1 0.596765 0.558315 0.0499687 0.246823 -3.30602 -0.149016 -0.0603912 -0.341737 
228 1 0.543839 0.608128 0.047903 0.4194 -3.34744 -0.018853 -0.0862367 -0.354133 
625 1 0.542095 0.568025 0.0979709 0.981799 -3.33081 -0.525586 -0.439552 0.44275 
626 1 0.605084 0.600107 0.0973803 0.547677 -3.29519 0.290246 -0.100221 0.486142 
229 1 0.65342 0.548434 -0.000143067 0.442321 -3.34135 -0.067625 0.398301 0.292509 
232 1 0.66143 0.592599 0.0473738 0.365887 -3.30518 -0.211473 -0.25518 0.308566 
230 1 0.718364 0.58771 0.00288805 0.741492 -3.31878 0.00787945 -0.643813 -0.490496 
271 1 0.722729 0.626881 0.0496166 0.865236 -3.25592 0.506505 0.529387 0.307551 
269 1 0.669168 0.637442 1.00002 0.889624 -3.26859 -0.735515 -0.337365 0.352989 
630 1 0.717155 0.586589 0.099777 0.533055 -3.34696 0.0276518 0.0572525 0.0118326 
669 1 0.669067 0.637254 0.0977162 0.762453 -3.34636 0.0269325 -0.262049 0.389859 
236 1 0.775051 0.579693 0.0527268 0.479674 -3.30361 0.0645001 -0.240786 -0.231519 
234 1 0.835382 0.569692 0.00305204 0.72746 -3.29279 -0.492101 0.0843785 -0.403579 
275 1 0.840972 0.610959 0.0501003 0.527378 -3.312 0.232461 0.469018 0.186617 
634 1 0.839011 0.570706 0.0977283 0.866018 -3.34914 -0.115935 -0.126665 0.657145 
673 1 0.784627 0.620917 0.0980434 0.578591 -3.33592 0.14041 0.0466362 0.500768 
204 1 0.0125432 0.542074 0.0487882 1.06393 -3.23953 -0.60189 0.276845 0.336596 
641 1 0.0150078 0.586322 0.0998394 0.957121 -3.29148 -0.0485106 -0.023285 0.0441821 
240 1 0.892159 0.561485 0.0477825 0.773935 -3.30506 0.498911 0.123714 0.299835 
279 1 0.962145 0.588889 0.0438384 4.16265 -3.30341 -0.540263 0.655954 0.666067 
638 1 0.952261 0.551127 0.0975184 0.882556 -3.27114 0.190765 0.62311 0.585915 
677 1 0.906892 0.602996 0.102184 0.952158 -3.35055 0.0159457 0.110024 -0.393287 
244 1 0.0257083 0.627671 0.0503548 1.09643 -3.36865 0.00823335 0.374516 0.069754 
283 1 0.0872351 0.670388 0.0468709 1.83671 -3.30246 -0.832555 -0.628477 0.37872 
284 1 0.0309961 0.719604 0.046248 1.06227 -3.29814 -0.116117 -0.342921 0.38725 
681 1 0.0302137 0.673846 0.101424 0.538928 -3.27441 0.60365 0.148167 -0.321683 
682 1 0.0932468 0.709454 0.0991415 0.601773 -3.32973 0.00202787 0.26695 -0.121482 
685 1 0.136226 0.660112 0.0999564 0.844494 -3.32387 0.566645 -0.062154 -0.161365 
281 1 0.0231822 0.670883 0.00270779 1.99954 -3.26705 0.665577 0.771726 -0.103119 
285 1 0.0911593 0.711148 0.999793 0.627826 -3.29184 -0.855626 0.42158 -0.289255 
252 1 0.190586 0.657028 0.0489419 0.834476 -3.35723 0.275183 -0.0745885 0.219656 
287 1 0.144613 0.705602 0.0443186 1.16342 -3.21648 0.68169 0.300941 0.946439 
689 1 0.199982 0.699396 0.0994242 0.453242 -3.38447 -0.139955 -0.0920405 -0.286574 
650 1 0.250363 0.64819 0.0996734 0.474425 -3.39222 0.394807 0.15761 -0.0571211 
289 1 0.204095 0.698797 0.000232235 0.49286 -3.27765 0.354199 0.427629 0.0627617 
246 1 0.139 0.664408 0.996208 1.12742 -3.16191 -0.222108 -0.575097 0.801634 
291 1 0.260585 0.688123 0.0481019 0.888293 -3.30519 -0.111664 0.526222 0.73807 
295 1 0.331264 0.724299 0.0509832 1.12779 -3.30036 -0.582488 -0.0822509 -0.304545 
260 1 0.379879 0.673586 0.0541059 0.725753 -3.26996 -0.514376 0.262901 -0.599646 
297 1 0.385085 0.718808 0.00102373 0.458209 -3.35633 -0.110664 -0.349575 0.0803323 
654 1 0.31999 0.685369 0.0976383 1.11369 -3.35206 -0.489392 -0.657975 0.363563 
293 1 0.314266 0.683096 0.00211121 1.28538 -3.3166 0.919009 0.152734 -0.0452634 
264 1 0.446041 0.708905 0.0495103 0.542188 -3.31807 0.0381391 0.262498 0.128632 
263 1 0.497505 0.660079 0.0509235 0.730615 -3.28971 0.196968 -0.38243 -0.224577 
658 1 0.389732 0.714344 0.101635 1.29673 -3.28761 -0.298471 0.151619 0.00629701 
661 1 0.437949 0.66488 0.0944489 1.60212 -3.27168 0.0159068 0.0486041 0.852625 
662 1 0.503332 0.696776 0.102641 1.93758 -3.34438 0.110418 0.877669 -0.0135873 
267 1 0.609131 0.639006 0.051298 1.30974 -3.29808 0.292152 0.610842 -0.706344 
268 1 0.56673 0.694062 0.0567 2.29125 -3.29193 -0.685764 0.120793 -0.74106 
266 1 0.612283 0.684066 0.00198547 0.957537 -3.33584 0.57262 0.537394 -0.0341344 
666 1 0.616516 0.685871 0.104406 0.84107 -3.25759 0.757481 0.370786 -0.162377 
665 1 0.556423 0.650571 0.0983242 0.842389 -3.27353 -0.568068 -0.31517 0.379656 
265 1 0.552405 0.651485 0.99784 0.847666 -3.27525 -0.285857 -0.300625 0.460413 
272 1 0.671576 0.677662 0.0533462 0.621312 -3.36496 0.222177 0.309565 -0.164076 
270 1 0.731697 0.669816 0.00269253 0.315172 -3.2953 -0.0757214 0.240466 0.119493 
309 1 0.677031 0.719566 0.00528807 1.2386 -3.31429 0.241025 -0.181617 -0.502015 
311 1 0.739401 0.712154 0.0551085 0.798513 -3.34216 -0.00463517 -0.00192697 -0.398486 
670 1 0.740073 0.673342 0.103013 2.25615 -3.23118 -1.11125 -0.525198 -0.255731 
709 1 0.679281 0.727484 0.101388 4.11642 -3.20416 0.836811 -1.32097 0.0125014 
276 1 0.787781 0.66252 0.0523762 0.798829 -3.32029 0.345785 -0.0157499 -0.413833 
315 1 0.852186 0.696508 0.0507298 0.837385 -3.34344 0.362485 0.020966 -0.0962044 
674 1 0.852691 0.65398 0.102254 0.456605 -3.34127 -0.0153875 -0.440014 -0.0678689 
713 1 0.80554 0.702023 0.102953 1.13313 -3.24287 -0.0165533 0.552648 -0.157822 
278 1 0.962305 0.638611 0.00330862 0.799706 -3.31059 -0.323619 -0.175033 -0.0462491 
280 1 0.90641 0.646657 0.0536575 0.995983 -3.33122 0.0943608 -0.19288 -0.297718 
319 1 0.972451 0.683204 0.0486232 0.67531 -3.2296 -0.269996 -0.104965 0.286693 
678 1 0.970389 0.641825 0.0957393 2.66395 -3.25384 -0.635104 -0.914549 0.478293 