ITEM: TIMESTEP
16750
ITEM: NUMBER OF ATOMS
4000
ITEM: BOX BOUNDS pp pp pp
3.3293751493578285e+00 3.7170624850641602e+01
-3.6532437783916243e+00 4.4153243778390589e+01
-3.9388175335461018e-01 4.0893881753355195e+01
ITEM: ATOMS id type xs ys zs c_csym c_peratom fx fy fz 
405 1 0.0443676 0.0604449 0.0998533 1.1105 -3.29658 -0.4398 -0.342291 0.467386 
7 1 0.0977042 0.0513235 0.0519002 1.05896 -3.31832 0.502038 0.601172 -0.20841 
3 1 0.0347006 0.018328 0.0474013 0.929479 -3.2809 -0.369597 -0.552513 0.173577 
766 1 0.0865652 0.0104455 0.100018 1.05961 -3.33899 0.388301 -0.0579858 -0.0548367 
11 1 0.204813 0.0409306 0.0559592 1.66945 -3.2538 0.200574 -0.350337 -0.917873 
409 1 0.153271 0.0477249 0.101735 0.405911 -3.28341 -0.557442 -0.120373 0.230346 
410 1 0.215124 0.0833037 0.102375 0.237605 -3.22186 0.0364152 0.0138428 0.558801 
372 1 0.142859 0.00174826 0.0446292 2.61964 -3.28878 0.389737 0.380644 0.638737 
770 1 0.205734 0.998292 0.0992785 0.587222 -3.26012 -0.341923 -0.529374 0.0615101 
16 1 0.266037 0.0746935 0.0541033 1.23061 -3.27896 0.470811 0.0813433 -0.355391 
15 1 0.320646 0.0286057 0.0509973 1.50476 -3.27561 -0.22997 -0.690432 -0.0455155 
413 1 0.267794 0.0286368 0.100602 1.03237 -3.30023 0.352652 0.511827 0.272086 
414 1 0.332388 0.0659999 0.102397 0.888106 -3.27358 -0.778628 -0.235999 0.37133 
13 1 0.262723 0.0325509 0.00173488 0.3471 -3.32888 0.339723 0.35213 0.168805 
20 1 0.385027 0.0580932 0.052475 0.192543 -3.27553 0.573403 0.192999 -0.234397 
19 1 0.436885 0.00958674 0.050118 0.22311 -3.31264 -0.307199 -0.0784512 0.145722 
418 1 0.441163 0.0506969 0.100841 0.249347 -3.3116 0.0769251 0.129439 -0.209402 
421 1 0.489902 0.00194436 0.10108 0.437494 -3.29102 0.00363803 -0.0988277 -0.130544 
417 1 0.378289 0.0167305 0.101656 0.402566 -3.32414 -0.0191547 -0.524641 -0.100678 
24 1 0.502105 0.0399579 0.0456702 2.40973 -3.28551 -0.275895 1.16567 0.36121 
21 1 0.495309 0.00608415 -0.00542586 1.89198 -3.26515 -0.185281 -0.356935 0.217096 
28 1 0.61329 0.033478 0.0540763 0.891054 -3.34175 0.0336959 -0.318482 -0.293328 
422 1 0.552877 0.0360273 0.10045 0.739028 -3.27674 0.570088 0.296198 -0.210156 
465 1 0.615274 0.0754676 0.100965 0.965483 -3.28729 0.439185 -0.300696 0.168195 
63 1 0.56001 0.0812733 0.0535883 1.25246 -3.33136 -0.0278076 0.139037 -0.671469 
61 1 0.507056 0.0855753 0.996677 1.0854 -3.35535 0.1893 -0.0221816 0.400004 
461 1 0.503797 0.0864562 0.0986826 0.471737 -3.2635 0.351248 0.18885 -0.0946779 
32 1 0.728778 0.0186843 0.0495638 0.323629 -3.32886 -0.141056 -0.342113 0.208483 
67 1 0.680463 0.0677841 0.0515259 0.500393 -3.30172 -0.0469297 -0.0694998 -0.0635503 
469 1 0.736172 0.0556518 0.10145 0.493639 -3.30108 0.0336028 0.50075 0.125571 
426 1 0.66908 0.0274209 0.101644 0.737688 -3.32203 0.0182899 -0.132725 0.032767 
30 1 0.739228 0.0560233 0.000227907 0.576628 -3.2941 -0.0955926 0.592399 0.0996528 
26 1 0.671361 0.0264176 -0.00112773 0.483096 -3.32497 -0.153522 -0.436745 0.255443 
36 1 0.79505 0.0506158 0.0496964 0.284267 -3.32277 0.158975 -0.185679 0.141507 
35 1 0.845662 1.00015 0.0518056 0.219831 -3.31222 0.0731335 0.234831 0.0788284 
434 1 0.853587 0.0443875 0.101396 0.809271 -3.33107 0.12382 -0.608204 -0.183655 
430 1 0.786217 0.00784487 0.100193 0.130869 -3.35741 0.409711 0.165811 -0.0316549 
33 1 0.7864 0.00628856 0.00101116 0.539697 -3.26741 0.406599 0.676695 -0.107557 
4 1 0.981558 0.0618449 0.0510284 1.59677 -3.30485 -0.260577 0.685551 -0.123467 
40 1 0.912232 0.0294701 0.0476139 1.14338 -3.3474 0.290296 0.473494 0.320678 
401 1 0.974571 0.0258877 0.100974 0.501108 -3.32519 -0.0111152 -0.159818 0.100063 
438 1 0.924021 0.0735272 0.0999388 0.365668 -3.36683 0.020968 0.164465 -0.0651824 
8 1 0.0435268 0.101356 0.0515065 0.617541 -3.30673 0.0858134 0.218474 -0.455633 
47 1 0.105934 0.140837 0.0503611 0.379566 -3.2978 0.0898094 -0.328357 -0.0875895 
406 1 0.102353 0.0984775 0.0995972 0.618303 -3.324 -0.0196533 -0.150347 0.242262 
445 1 0.0523915 0.147155 0.0983748 0.690427 -3.28637 -0.312805 -0.152724 0.345852 
45 1 0.0514933 0.146019 -0.0064432 1.53475 -3.27674 0.119803 -0.0444915 0.810015 
12 1 0.163156 0.0922251 0.0568679 1.92041 -3.2571 -0.906654 -0.212535 -0.555725 
52 1 0.169535 0.176389 0.0497925 0.370876 -3.34373 0.262915 -0.18407 0.204871 
51 1 0.223152 0.127944 0.0513408 0.930849 -3.28041 -0.403072 -0.0527329 0.239123 
449 1 0.16507 0.134197 0.105017 0.576453 -3.27509 0.254924 -0.308309 -0.76846 
450 1 0.226968 0.168132 0.105309 0.963244 -3.30985 0.173196 0.0353134 -0.956825 
55 1 0.33319 0.104428 0.0545219 1.53913 -3.25493 0.292949 0.631704 -0.224827 
56 1 0.283632 0.161623 0.0512099 0.58616 -3.29593 0.169264 -0.0166184 -0.0494699 
453 1 0.277797 0.1167 0.100355 0.802071 -3.28181 0.108321 0.425715 0.272943 
454 1 0.341619 0.149321 0.101219 0.584686 -3.30104 -0.21586 0.34301 0.223031 
54 1 0.347683 0.149721 1.00417 2.33118 -3.29661 -0.77069 0.408857 -0.196991 
59 1 0.450041 0.0931886 0.0509172 0.392586 -3.35736 0.222072 0.0694975 -0.186234 
60 1 0.397882 0.140511 0.0536002 1.35662 -3.29527 0.458088 0.313801 0.222489 
458 1 0.460907 0.138238 0.0998729 1.16594 -3.24881 -1.06685 -0.0510994 -0.217413 
457 1 0.392207 0.10007 0.103094 0.344611 -3.2968 0.444263 0.413968 -0.107572 
99 1 0.456729 0.183501 0.048324 1.26819 -3.32413 0.346 -0.212535 0.124769 
64 1 0.512023 0.133512 0.0495319 0.904137 -3.32473 0.0933193 -0.399072 -0.263537 
103 1 0.580999 0.164166 0.0503581 0.610902 -3.26475 -0.704032 -0.0373817 -0.129574 
462 1 0.570672 0.125541 0.102768 0.661098 -3.36759 0.020885 0.111466 -0.132236 
501 1 0.51886 0.174736 0.097411 0.938945 -3.32042 0.459458 0.40077 0.19415 
62 1 0.571781 0.122345 0.998998 0.36965 -3.31539 -0.586165 -0.337149 0.0997256 
68 1 0.626955 0.115641 0.0507103 0.323863 -3.31581 0.104065 -0.0041079 -0.150392 
72 1 0.69408 0.148964 0.0477853 0.612457 -3.32599 0.0451849 -0.370588 -0.0172077 
71 1 0.747033 0.0990988 0.0551905 1.20129 -3.33369 -0.267769 0.283096 -0.588636 
505 1 0.637525 0.16107 0.0997697 0.932248 -3.2251 -0.377453 -1.03357 0.253486 
466 1 0.681449 0.107966 0.100073 1.0674 -3.32463 0.773933 0.0595515 0.113194 
75 1 0.862753 0.0828922 0.050204 0.19564 -3.32806 0.363769 -0.218825 -0.127216 
473 1 0.803532 0.0896486 0.100045 0.441271 -3.30554 0.23136 0.322671 0.455755 
76 1 0.816213 0.130226 0.0539233 1.25176 -3.27841 -0.465531 0.261601 -0.582307 
470 1 0.755728 0.143068 0.10157 0.917489 -3.33248 -0.278397 -0.415746 -0.00718674 
477 1 0.875975 0.12403 0.0977127 0.769377 -3.23808 -0.49298 -0.326302 0.646343 
80 1 0.882105 0.162439 0.0505043 1.68229 -3.24339 -0.21826 0.857722 -0.194392 
474 1 0.8211 0.173506 0.0984696 0.707567 -3.29497 0.105055 -0.0952041 0.474092 
43 1 0.996531 0.151914 0.047857 0.780866 -3.31042 -0.338627 0.0662983 0.101832 
79 1 0.932028 0.116707 0.0502743 0.460526 -3.26015 0.0121627 -0.487637 0.0848969 
402 1 0.993364 0.105069 0.102096 2.01884 -3.31126 -0.57423 0.395472 0.0374014 
441 1 0.938136 0.157776 0.0975267 0.836429 -3.32108 0.454437 0.500737 0.37366 
446 1 0.117923 0.181733 0.101354 0.534757 -3.2939 -0.386958 0.094229 -0.205069 
48 1 0.0579817 0.185706 0.0485551 1.09307 -3.3271 0.0204674 0.970141 0.0379241 
83 1 0.0084823 0.239721 0.0533119 0.655954 -3.35975 -0.102664 -0.315467 -0.0250841 
485 1 0.070516 0.229819 0.103033 1.15614 -3.34284 -0.590555 -0.0185705 -0.382781 
46 1 0.112827 0.183872 -0.00277406 0.581246 -3.29185 -0.472144 -0.0737443 0.277848 
87 1 0.124667 0.225626 0.0477845 0.910335 -3.29526 -0.590957 -0.0890783 0.0373294 
91 1 0.231213 0.214022 0.0481187 1.06413 -3.31405 -0.0303836 -0.250061 0.411873 
92 1 0.183747 0.263196 0.0524444 0.587651 -3.2915 -0.0610439 0.163605 -0.53202 
489 1 0.173081 0.221094 0.0999777 1.32319 -3.25442 0.702038 -0.32857 -0.138862 
89 1 0.177101 0.215905 0.998965 1.12397 -3.29638 0.386128 0.923973 -0.167555 
486 1 0.12848 0.268402 0.101721 0.261682 -3.3109 -0.157825 0.448457 0.0633111 
490 1 0.241094 0.254432 0.0981082 0.292854 -3.29789 0.0995746 -0.431828 0.488257 
95 1 0.350433 0.191803 0.0504251 1.19424 -3.2748 -0.243431 0.24763 -0.29299 
96 1 0.299684 0.24485 0.0501288 0.421648 -3.28077 0.311402 0.0526442 0.304686 
493 1 0.293143 0.201981 0.0983359 0.73601 -3.34987 -0.199793 0.0758096 0.289031 
494 1 0.358013 0.235581 0.1038 1.38306 -3.25763 0.0354411 0.083856 -0.577174 
100 1 0.405553 0.232695 0.0511816 1.44427 -3.31791 0.591663 -0.106155 -0.0279479 
139 1 0.475884 0.266689 0.0497615 0.200391 -3.29655 0.105556 -0.166697 -0.132364 
497 1 0.401556 0.185383 0.0977691 1.49567 -3.29234 0.714983 0.178026 0.767573 
498 1 0.466584 0.222335 0.10061 0.430685 -3.3951 0.0628457 0.201627 0.0449954 
537 1 0.422063 0.273912 0.0998456 0.30696 -3.30839 -0.143544 -0.338556 0.275343 
104 1 0.526129 0.215173 0.0463477 0.614637 -3.32706 -0.0991575 -0.0743235 0.422006 
108 1 0.588405 0.249055 0.0500929 1.02343 -3.33325 0.487675 0.230333 0.169086 
502 1 0.589882 0.205805 0.100437 1.58208 -3.29312 -0.972742 0.589082 0.10887 
541 1 0.529527 0.261296 0.0990758 1.36036 -3.33273 0.33946 -0.439723 -0.0601788 
102 1 0.533401 0.259173 0.99873 0.182727 -3.30696 0.151322 -0.198306 0.144199 
105 1 0.58676 0.208938 -0.0010996 0.195262 -3.36974 0.0154365 -0.134586 -0.0743303 
107 1 0.641045 0.198054 0.0506427 0.825099 -3.24405 0.674351 0.809173 -0.613976 
509 1 0.704266 0.188132 0.0947173 2.41519 -3.24017 0.269275 0.652705 0.358503 
112 1 0.708649 0.233351 0.0528898 0.948078 -3.39292 0.0483866 -0.0473743 -0.466133 
506 1 0.652202 0.245135 0.0995468 0.7591 -3.3405 -0.34052 -0.316866 0.108083 
115 1 0.832092 0.213259 0.05688 3.19389 -3.2985 -0.0522979 0.559212 -1.13567 
111 1 0.760884 0.180792 0.0451258 1.86152 -3.2716 0.2432 0.260849 0.670279 
517 1 0.831505 0.261215 0.0985456 1.60506 -3.3025 0.801534 -0.262348 0.10004 
513 1 0.7692 0.224005 0.100447 0.4189 -3.26998 -0.298642 0.0879748 -0.531082 
116 1 0.781329 0.262439 0.0483829 1.10912 -3.30256 -0.045712 0.459996 0.246961 
442 1 -0.000402819 0.196372 0.104443 1.02255 -3.33004 0.255799 -0.102123 -0.769487 
44 1 0.940531 0.203684 0.0500133 0.742114 -3.3425 0.4689 -0.122955 0.24239 
119 1 0.89666 0.254242 0.0527664 0.889857 -3.36183 -0.305193 -0.271184 -0.396934 
478 1 0.887204 0.211954 0.102197 0.874712 -3.29588 -0.042235 -0.356116 -0.024567 
481 1 0.952481 0.244659 0.102554 0.563513 -3.28563 -0.0163382 0.333827 -0.309426 
88 1 0.0729407 0.273328 0.0503876 0.788144 -3.29517 0.115999 0.230025 0.330569 
123 1 0.0272136 0.321968 0.047162 2.37643 -3.23596 -0.487259 0.206045 0.357595 
128 1 0.0810212 0.364596 0.0499457 1.64156 -3.35496 0.389997 -0.067105 0.278605 
482 1 0.0132266 0.284246 0.101267 0.894335 -3.28859 0.470643 -0.463109 -0.0360154 
525 1 0.0772589 0.317604 0.0987462 0.738901 -3.3292 0.36613 0.38874 0.356116 
125 1 0.0813078 0.321182 1.00226 1.15659 -3.31016 0.196932 -0.0920607 -0.662781 
127 1 0.13808 0.314073 0.0526302 0.665008 -3.31665 -0.331211 -0.231504 -0.378484 
132 1 0.203938 0.347833 0.0509053 0.656066 -3.31904 0.0844439 -0.297098 -0.301691 
526 1 0.143702 0.354919 0.0986513 0.483503 -3.27885 -0.721416 -0.285752 0.378639 
529 1 0.191613 0.305735 0.102806 0.62268 -3.29851 -0.0591678 -0.229466 -0.282508 
131 1 0.251872 0.292287 0.0519067 2.43899 -3.27148 -0.158217 0.985643 -0.145661 
129 1 0.192448 0.306003 0.999268 0.360563 -3.37018 0.300376 0.0342854 0.278202 
126 1 0.148289 0.35596 -0.000622852 0.656179 -3.34922 -0.30498 0.0818015 0.0571812 
136 1 0.312749 0.334564 0.047549 0.814164 -3.27604 -0.441606 -0.49344 0.569226 
533 1 0.310867 0.286496 0.0989893 0.941909 -3.33415 -0.0684863 0.543824 -0.0519737 
130 1 0.260073 0.347389 0.000274468 2.11001 -3.31215 -0.668929 -0.839543 -0.167749 
135 1 0.363317 0.281305 0.0462782 1.11291 -3.24869 -0.280843 -0.00705121 0.781504 
530 1 0.257289 0.338532 0.0992016 0.347613 -3.34117 0.276213 0.0922716 0.0436869 
133 1 0.305531 0.292051 1.00296 0.643531 -3.28439 -0.111692 0.0813584 -0.512866 
134 1 0.372191 0.32441 0.00336915 0.804537 -3.26579 -0.0605263 0.131361 -0.54258 
534 1 0.37586 0.323515 0.0991111 1.14944 -3.33439 -0.902476 -0.109252 0.276396 
140 1 0.42748 0.31313 0.0500272 0.992338 -3.26577 0.444337 0.741791 -0.202209 
538 1 0.483952 0.309727 0.0991384 0.609191 -3.30029 0.281444 0.104944 0.390549 
577 1 0.432811 0.359585 0.10092 0.685174 -3.31883 0.419958 0.330103 -0.168299 
144 1 0.494798 0.34781 0.0518313 1.64676 -3.32058 -0.49266 0.551396 -0.540473 
137 1 0.419166 0.275008 0.999084 0.19582 -3.30437 0.26898 -0.0335801 0.0118857 
143 1 0.542594 0.301573 0.0456145 0.614508 -3.34994 0.170089 -0.121973 0.286689 
545 1 0.599307 0.294088 0.098745 0.482457 -3.32866 0.0852245 -0.094573 -0.306017 
148 1 0.611371 0.33419 0.0428694 1.432 -3.34187 0.0244083 0.0690201 0.552201 
542 1 0.555282 0.344433 0.094458 1.12681 -3.32993 -0.161169 -0.230432 0.500907 
145 1 0.601768 0.290754 0.998608 0.789696 -3.28995 -0.0574638 0.207144 0.0970585 
142 1 0.549468 0.347167 0.997768 1.77846 -3.29323 0.14114 -0.403736 -0.00123749 
147 1 0.65738 0.285321 0.0520504 1.19368 -3.31591 0.0837806 -0.337906 -0.203057 
151 1 0.728393 0.312672 0.0472915 1.61443 -3.28655 0.513585 0.475563 0.612066 
549 1 0.675881 0.324969 0.0991122 1.62335 -3.27091 -0.814605 -0.061989 -0.115298 
510 1 0.721132 0.276413 0.101202 0.39283 -3.27693 -0.175607 -0.347652 -0.259463 
120 1 0.849269 0.302275 0.0463434 1.22696 -3.2862 -0.516836 -0.230908 0.292322 
155 1 0.79302 0.354714 0.0513762 1.36883 -3.37083 -0.0179978 -0.434983 -0.0679093 
157 1 0.852435 0.345123 -0.00276502 0.705894 -3.29107 0.0715902 -0.0440814 0.624519 
514 1 0.785873 0.307344 0.0993802 0.807081 -3.32805 0.239209 0.913942 -0.164662 
557 1 0.85234 0.345314 0.10161 0.533005 -3.3626 -0.213368 0.0775895 -0.0219025 
84 1 0.960288 0.289853 0.0505929 0.463532 -3.28329 -0.00477922 -0.343638 -0.304686 
159 1 0.909885 0.336979 0.0507914 0.478684 -3.26892 0.115444 0.707856 -0.299049 
518 1 0.901262 0.297584 0.0973372 0.720982 -3.25756 0.214039 -0.312338 0.32521 
521 1 0.968695 0.332268 0.0976121 0.842496 -3.3177 -0.11299 0.172013 0.291558 
522 1 0.0248159 0.374119 0.102915 2.16743 -3.23222 0.800927 -0.414173 -0.0392474 
163 1 0.0304381 0.412547 0.0532021 1.36846 -3.24144 0.892548 0.412117 -0.670525 
168 1 0.0986286 0.446939 0.0506705 0.469886 -3.34417 0.458959 0.0459727 -0.2796 
565 1 0.0940675 0.406744 0.0986227 0.675005 -3.32404 0.0999235 -0.277865 0.212107 
167 1 0.154302 0.394796 0.0518485 1.51702 -3.31013 -0.504608 0.436804 -0.59326 
172 1 0.215065 0.436932 0.048121 1.07292 -3.2767 0.134756 -0.464502 0.0359932 
569 1 0.206152 0.387956 0.100438 0.783975 -3.25205 0.731968 0.483319 0.253175 
566 1 0.163192 0.437553 0.0990443 1.56583 -3.30551 -0.601318 0.131188 0.323417 
166 1 0.156117 0.441606 1.00011 0.605052 -3.34231 -0.0566799 -0.030014 0.0755178 
171 1 0.265402 0.386065 0.0517669 0.485329 -3.28405 -0.336871 -0.219446 -0.198347 
176 1 0.327628 0.419022 0.0487412 0.338315 -3.3207 0.411332 0.332748 0.109899 
573 1 0.322387 0.376638 0.0964638 0.898231 -3.28361 -0.223013 -0.266599 0.662557 
570 1 0.272228 0.426191 0.100115 0.379254 -3.35727 -0.258746 -0.248253 0.0619997 
175 1 0.373227 0.367187 0.0476484 1.23636 -3.23376 1.09901 0.487703 0.57807 
179 1 0.443078 0.404895 0.0546716 1.37561 -3.31963 -0.187253 -0.67416 -0.187014 
578 1 0.453964 0.446609 0.101898 0.875025 -3.32731 -0.325618 -0.312155 -0.134534 
574 1 0.38561 0.410671 0.101793 0.575795 -3.34237 -0.0225739 0.457185 -0.371457 
183 1 0.559018 0.386454 0.0473964 0.808368 -3.29657 0.714021 -0.198406 0.213506 
184 1 0.516757 0.435506 0.0510856 0.903021 -3.30892 -0.445859 0.236599 -0.275482 
187 1 0.630846 0.419027 0.0472965 0.531132 -3.31087 -0.262123 -0.57256 0.226717 
581 1 0.503751 0.39281 0.0953879 1.14645 -3.28402 -0.123359 -0.309492 0.44162 
585 1 0.572889 0.425697 0.0988136 0.593172 -3.33051 0.253627 -0.260718 -0.0727324 
546 1 0.623499 0.373788 0.0976944 0.815632 -3.33771 -0.16158 0.191868 -0.201141 
553 1 0.731912 0.362777 0.0974007 1.5914 -3.23398 1.1122 -0.114313 0.00661658 
152 1 0.682054 0.366604 0.0472149 0.670446 -3.31822 -0.461906 -0.0903285 -0.228941 
550 1 0.685967 0.40966 0.0949536 1.00779 -3.27615 0.235339 0.455662 0.445873 
156 1 0.74591 0.405881 0.0476792 0.991457 -3.28627 0.243481 -0.619382 0.137583 
593 1 0.756296 0.447268 0.0995335 0.479596 -3.37153 0.0169528 -0.225567 -0.278501 
193 1 0.757016 0.444232 -0.00372764 0.788216 -3.32329 -0.431922 0.0908887 0.00710067 
160 1 0.859778 0.385932 0.0519308 0.949189 -3.30435 -0.00383524 0.0783396 -0.429131 
195 1 0.811747 0.437963 0.0452129 0.70795 -3.29786 -0.00766058 -0.111988 0.460568 
197 1 0.863813 0.431472 0.995117 0.536562 -3.28069 0.11188 0.294181 0.299443 
554 1 0.805552 0.396958 0.0993646 0.691764 -3.29219 -0.601614 -0.194863 -0.0281227 
597 1 0.865378 0.432065 0.101615 0.588095 -3.33773 0.354608 0.44563 -0.415925 
154 1 0.80171 0.394627 -0.00479843 0.708774 -3.33435 -0.322897 -0.0284725 0.495189 
124 1 0.973413 0.378117 0.0561244 2.42023 -3.17833 -0.545589 -0.751221 -1.21181 
199 1 0.920107 0.42163 0.0449057 2.875 -3.32745 0.166647 0.702868 0.410858 
561 1 0.976009 0.424044 0.0990447 1.7736 -3.30026 0.0775955 0.0682465 0.516788 
558 1 0.919506 0.384479 0.102007 0.739612 -3.2914 -0.629656 -0.219735 0.10993 
203 1 0.0470831 0.496179 0.0447259 0.903733 -3.31707 0.537484 0.321483 0.645815 
605 1 0.108283 0.4909 0.100831 0.307971 -3.31331 -0.177622 -0.0689295 -0.33977 
602 1 0.0543416 0.53966 0.0996293 0.498714 -3.38526 0.22025 -0.320152 -0.456319 
208 1 0.115854 0.53154 0.0472991 0.26152 -3.37201 -0.35924 -0.191367 0.0326232 
562 1 0.0477796 0.455117 0.0998348 0.989957 -3.31439 -0.654775 0.150032 0.205674 
202 1 0.0527177 0.540644 -0.00282745 0.631616 -3.31841 0.640191 0.114293 -0.0442163 
205 1 0.103167 0.489389 0.996914 0.940908 -3.35093 0.488912 0.239886 0.293176 
207 1 0.167243 0.482609 0.0491944 0.380933 -3.34167 -0.763432 -0.00617556 -0.176066 
212 1 0.229711 0.51477 0.0475061 0.417595 -3.32742 0.381754 0.168296 -0.145739 
609 1 0.223502 0.472294 0.0990614 0.772663 -3.30314 0.141941 0.588195 0.222391 
606 1 0.17129 0.523446 0.10081 0.612757 -3.28742 0.233525 0.0548682 -0.348456 
206 1 0.176535 0.525947 0.996136 0.708724 -3.30579 -0.585738 -0.300154 0.57807 
211 1 0.282307 0.468718 0.0461827 0.373076 -3.31845 -0.269273 0.222029 -0.268952 
215 1 0.348472 0.503309 0.0475468 0.279726 -3.28774 -0.312111 -0.255195 -0.0380996 
613 1 0.332907 0.46403 0.0938466 2.36286 -3.27106 0.746517 -0.621135 0.858922 
610 1 0.287695 0.509429 0.098218 0.505979 -3.31542 -0.0260047 0.410503 -0.207397 
174 1 0.338726 0.460842 -0.00484368 0.28463 -3.31558 -0.0596363 0.123095 0.353177 
180 1 0.394507 0.454223 0.049898 0.268547 -3.35591 -0.0257333 -0.240296 0.142322 
219 1 0.46369 0.484912 0.0505079 0.272432 -3.31036 -0.166438 -0.348035 -0.254227 
621 1 0.473374 0.526583 0.0934252 1.22068 -3.30769 -0.423305 0.17651 0.468059 
220 1 0.408369 0.537408 0.0484281 1.43702 -3.29289 0.7872 -0.119899 0.130174 
617 1 0.402561 0.493975 0.10213 0.780689 -3.37624 0.0711268 0.0477756 -0.404704 
188 1 0.582496 0.467632 0.0457524 0.497486 -3.31637 -0.647805 0.0928443 0.188654 
582 1 0.523806 0.475028 0.100178 0.861524 -3.26047 -0.400701 -0.00546301 -0.463105 
223 1 0.527606 0.517665 0.0465075 0.773325 -3.25765 0.577262 -0.304116 0.081254 
586 1 0.585225 0.508975 0.0977211 0.365509 -3.25732 0.0632609 0.197871 -0.0634246 
191 1 0.69872 0.450859 0.0507332 0.958781 -3.30728 -0.280686 0.580051 -0.395378 
192 1 0.644858 0.502017 0.0464674 0.51165 -3.28277 0.139558 -0.0256771 -0.0030888 
231 1 0.712498 0.53203 0.0482846 3.00232 -3.25395 -0.0561963 1.08496 0.4744 
589 1 0.633441 0.462942 0.0970191 1.2223 -3.30287 0.517038 -0.298632 0.153707 
590 1 0.705019 0.494071 0.0984683 0.771412 -3.326 -0.19911 0.339096 -0.0146778 
186 1 0.637492 0.456741 1.00087 1.35746 -3.3192 0.484304 0.489238 -0.663535 
196 1 0.761135 0.488631 0.0463753 0.506225 -3.28934 0.331703 -0.242542 0.400929 
194 1 0.813746 0.483417 0.998177 0.527011 -3.27437 0.777093 0.0506641 0.074953 
235 1 0.825216 0.528246 0.0495157 0.728727 -3.30493 -0.677904 -0.63131 -0.0922964 
233 1 0.765559 0.533648 -0.00417617 1.20348 -3.29148 -0.000146603 -0.145591 0.379949 
200 1 0.870081 0.475335 0.0497971 0.469325 -3.31603 0.503737 0.0729262 -0.452559 
594 1 0.819162 0.486057 0.0973245 1.18966 -3.31064 -0.670374 -0.41019 0.215175 
633 1 0.764147 0.535622 0.103738 2.2358 -3.29953 0.0939827 -0.783748 -0.23502 
637 1 0.879187 0.522109 0.0972373 1.06501 -3.25258 0.252273 -0.286598 0.30747 
201 1 0.993283 0.501625 -0.0048603 0.951589 -3.30405 -0.264244 0.0893727 0.16038 
164 1 0.986296 0.462529 0.050373 0.611671 -3.29554 -0.38605 -0.121993 -0.0763266 
198 1 0.927755 0.467936 0.999219 0.591615 -3.34968 -0.296207 0.456144 -0.0369703 
239 1 0.937432 0.511229 0.0510321 0.700394 -3.34149 -0.311117 -0.0361309 -0.56722 
601 1 0.990654 0.502542 0.102804 1.34621 -3.24478 0.918042 0.530999 -0.716982 
598 1 0.926854 0.470975 0.0988572 0.775075 -3.27279 -0.200689 -0.490005 -0.17806 
237 1 0.878594 0.519473 0.996976 0.332552 -3.34545 0.0351972 -0.365352 0.307696 
243 1 0.0659728 0.582173 0.0487092 0.186333 -3.35595 -0.290826 -0.231552 -0.2364 
642 1 0.074743 0.622589 0.0973018 0.476676 -3.31622 -0.259364 0.423095 -0.0382538 
245 1 0.122109 0.57377 -0.00259575 0.36414 -3.35991 0.0668774 0.0946406 0.223112 
641 1 0.00733456 0.588259 0.0973537 0.419485 -3.35288 0.000244624 0.11415 -0.13141 
244 1 0.0154119 0.633906 0.0473074 0.291466 -3.34762 0.00167533 -0.107157 0.0944756 
241 1 0.00453944 0.591973 -0.00281428 0.52426 -3.32457 0.210862 -0.164964 0.139325 
248 1 0.131916 0.616145 0.0526892 0.879029 -3.31559 0.0640305 0.109789 -0.570352 
645 1 0.121416 0.574525 0.0984953 0.334881 -3.28777 -0.0424437 -0.447231 -0.00667769 
247 1 0.179942 0.565121 0.048648 0.249447 -3.33459 -0.111718 0.252688 -0.0250395 
649 1 0.237071 0.556157 0.0933094 1.59007 -3.30298 0.280655 0.40942 0.463787 
251 1 0.246998 0.59968 0.0499896 0.53446 -3.30597 -0.158367 0.144307 -0.133778 
646 1 0.183053 0.609116 0.104444 3.03049 -3.26055 1.00871 0.268782 -0.918301 
249 1 0.190383 0.607324 0.999819 0.474224 -3.26584 -0.756352 -0.499988 -0.0737773 
210 1 0.239385 0.560183 0.999961 0.558352 -3.33442 0.151408 -0.174924 -0.307037 
614 1 0.356749 0.543958 0.10223 1.19709 -3.31537 -0.285162 -0.254557 -0.571054 
216 1 0.299098 0.548867 0.045466 0.688563 -3.33576 -0.113918 0.0346679 0.155636 
255 1 0.363591 0.584804 0.0451124 0.525469 -3.31369 -0.104855 0.202134 0.329871 
653 1 0.304986 0.590357 0.0927747 1.72585 -3.34363 0.24676 0.292793 0.544539 
259 1 0.430815 0.616155 0.0476579 0.354082 -3.34201 0.207892 0.314637 0.0278248 
224 1 0.47877 0.57053 0.0443398 1.11323 -3.29069 0.00561466 -0.323039 0.495029 
618 1 0.423888 0.575648 0.0982946 0.478631 -3.36267 -0.350995 0.28203 -0.0065475 
622 1 0.491243 0.609785 0.098535 0.630432 -3.32962 0.105594 -0.0102212 -0.349181 
227 1 0.594094 0.549006 0.0484834 1.501 -3.29636 0.36216 0.5187 -0.494529 
228 1 0.54136 0.606923 0.0431484 2.64682 -3.28102 0.337744 -0.431384 0.846657 
625 1 0.541175 0.560679 0.0939468 1.02571 -3.33186 -0.384451 0.322446 0.163193 
626 1 0.608196 0.598562 0.0978824 1.64855 -3.25871 -0.910146 -0.462232 -0.0551632 
226 1 0.598529 0.600061 -0.00228854 1.41785 -3.31649 0.186419 -0.665202 -0.24124 
222 1 0.538566 0.558707 0.000187129 1.07883 -3.30696 0.450149 0.220897 -0.204668 
629 1 0.649409 0.542032 0.097057 1.09323 -3.33437 0.61777 0.345953 0.289583 
232 1 0.657907 0.585752 0.0504517 1.18523 -3.28763 0.179181 0.130087 -0.319241 
230 1 0.717337 0.579916 1.0038 1.63687 -3.30927 0.629221 0.669547 -0.199595 
271 1 0.717748 0.626719 0.0497668 1.33366 -3.32778 0.416646 -0.303262 -0.325973 
630 1 0.713749 0.583108 0.0995811 0.774621 -3.31296 -0.0425583 -0.30207 -0.0630724 
669 1 0.669889 0.631813 0.101969 0.779591 -3.23348 -0.0926285 0.689735 -0.246433 
236 1 0.776452 0.573271 0.0571564 3.30871 -3.27525 -0.655808 0.208813 -0.611479 
234 1 0.827009 0.568045 1.00094 0.70916 -3.2591 -0.235258 0.0834413 -0.402176 
275 1 0.832755 0.610426 0.0474068 1.03065 -3.31211 0.360013 0.26767 0.665693 
634 1 0.832961 0.56783 0.105333 1.88691 -3.26 0.140388 0.292025 -0.520271 
673 1 0.7757 0.621126 0.100409 0.926622 -3.3382 0.269947 -0.142459 -0.163294 
273 1 0.779881 0.618979 0.998533 0.498352 -3.32137 -0.386317 -0.293352 0.10474 
204 1 0.999119 0.545116 0.0441543 1.1519 -3.30096 0.110109 0.345205 0.555656 
240 1 0.885071 0.56313 0.0463892 0.659229 -3.25085 0.258965 0.232718 0.633218 
279 1 0.953631 0.597986 0.0463908 1.07139 -3.333 -0.524373 -0.108483 0.293428 
638 1 0.942742 0.555104 0.0983728 0.322204 -3.33989 0.31555 -0.023134 0.0075859 
677 1 0.896397 0.604539 0.0996856 0.450449 -3.33566 -0.496119 -0.354702 -0.075625 
238 1 0.938223 0.556448 0.999899 1.09882 -3.31831 0.626346 -0.161429 -0.561007 
277 1 0.887272 0.604044 -0.0030931 0.941543 -3.27939 0.819877 0.235101 0.202722 
283 1 0.0815383 0.668481 0.047329 0.458293 -3.29484 -0.0193886 -0.496389 0.228133 
284 1 0.0294979 0.715914 0.0477025 0.195643 -3.35184 -0.090027 0.141641 0.185918 
681 1 0.0234233 0.67374 0.0979375 0.282596 -3.33601 -0.156603 0.156887 -0.300502 
682 1 0.0881776 0.709673 0.095363 0.549367 -3.33333 -0.042784 -0.0185705 0.501164 
285 1 0.0900925 0.707482 0.997383 0.589245 -3.28212 0.353785 0.482011 0.556079 
685 1 0.140763 0.662953 0.0982638 1.53853 -3.30589 -0.553589 -0.773213 0.24996 
252 1 0.197228 0.648584 0.0474209 0.671054 -3.29633 -0.260396 0.330509 0.846655 
287 1 0.147792 0.698747 0.0502136 0.851377 -3.3227 0.427614 0.570032 -0.680823 
689 1 0.2072 0.691963 0.100205 0.284905 -3.2971 0.0174233 0.131389 -0.200856 
650 1 0.258484 0.641599 0.0968267 0.78303 -3.35133 -0.483288 -0.17064 0.368568 
246 1 0.139369 0.65577 -0.00348968 0.944709 -3.2451 0.21985 0.489351 0.76419 
256 1 0.312835 0.637366 0.0476677 0.850905 -3.32414 -0.0532025 -0.385858 -0.307297 
657 1 0.371574 0.626848 0.0973954 0.563349 -3.33178 0.0817932 -0.524909 0.0763281 
291 1 0.265194 0.684907 0.0479776 0.452408 -3.32733 -0.190473 -0.179001 -0.218284 
260 1 0.382598 0.665151 0.0498548 0.983046 -3.32699 0.0407855 0.551172 -0.268507 
654 1 0.319897 0.67752 0.0979184 0.713668 -3.34843 0.384432 0.0798237 0.249941 
297 1 0.388298 0.709908 0.00165749 0.606935 -3.30766 0.155692 0.0652852 -0.132711 
264 1 0.446588 0.704761 0.0502355 0.993729 -3.31081 -0.264234 -0.58941 -0.0418099 
263 1 0.500758 0.656175 0.0524839 1.92894 -3.31516 -0.663241 -0.421221 -0.244064 
658 1 0.391339 0.707847 0.0975908 0.537061 -3.34638 -0.181346 0.123407 0.102687 
661 1 0.441442 0.657339 0.0967338 0.918244 -3.31902 -0.183507 0.423494 0.110103 
662 1 0.507785 0.69482 0.103741 1.35596 -3.20255 -0.507422 -0.0515717 -0.745639 
262 1 0.502762 0.694789 0.00331344 0.983995 -3.30121 -0.0239324 0.0310359 -0.317921 
267 1 0.611575 0.637357 0.0475129 0.777498 -3.34144 0.376498 0.283468 0.174452 
268 1 0.564756 0.687661 0.0493364 0.462332 -3.27935 0.135532 0.122149 -0.103951 
266 1 0.620672 0.6819 0.998057 0.526407 -3.36921 -0.153736 0.183628 0.0706523 
666 1 0.618179 0.683621 0.0994292 0.464804 -3.25584 0.145798 -0.59825 0.232063 
665 1 0.560349 0.646337 0.0997643 1.38948 -3.31463 -0.36805 -0.377935 0.109032 
265 1 0.553109 0.648441 -0.00115524 0.450734 -3.3201 -0.0166271 -0.0239044 -0.312849 
269 1 0.665359 0.629672 0.996157 1.41015 -3.25964 0.288204 0.545734 0.587317 
272 1 0.677631 0.675669 0.045041 1.14307 -3.32561 -0.459262 -0.0564648 0.344247 
270 1 0.728923 0.671855 0.993581 1.51263 -3.29673 -0.119913 -0.0106824 0.66437 
309 1 0.684377 0.721386 0.998131 0.788086 -3.36152 -0.258717 -0.279722 -0.178725 
311 1 0.738677 0.711781 0.0512524 1.17145 -3.32342 0.177392 0.327953 -0.380063 
670 1 0.731799 0.671998 0.0985829 0.820358 -3.2361 -0.373547 -0.460526 0.0110462 
709 1 0.678618 0.715855 0.100761 1.58373 -3.24345 0.424018 0.641816 -0.0498391 
276 1 0.784237 0.659819 0.0474962 0.692443 -3.32806 -0.017656 0.230481 -0.0774214 
315 1 0.847833 0.695097 0.0462051 0.950226 -3.32865 0.529782 -0.149756 0.163602 
674 1 0.842976 0.654564 0.0993436 0.170111 -3.3387 -0.203005 -0.151097 -0.261104 
713 1 0.795364 0.705295 0.097835 0.355627 -3.30879 0.162658 0.362717 0.162311 
274 1 0.844627 0.654401 0.998811 0.254578 -3.30785 0.0336537 0.12442 -0.0619461 
313 1 0.793771 0.707722 0.996981 0.812422 -3.29671 0.0288389 -0.623795 -0.017925 
280 1 0.899019 0.64374 0.0491414 0.865112 -3.31591 -0.0882426 0.326127 0.0977451 
319 1 0.961666 0.682823 0.0495501 0.533995 -3.35883 0.417263 -0.153334 -0.0564236 
678 1 0.955726 0.639701 0.0988339 0.450886 -3.30693 0.459019 0.101797 -0.146353 
317 1 0.910221 0.689795 -0.00226721 0.35937 -3.31324 -0.274357 0.265767 0.0969271 
717 1 0.906304 0.688736 0.100627 0.394361 -3.27574 0.149382 -0.10361 -0.455085 
318 1 0.971712 0.726335 0.996203 0.815747 -3.29363 0.170701 -0.458192 0.0779483 
288 1 0.0984098 0.749674 0.0474503 0.353453 -3.35006 -0.146563 -0.0237932 -0.207352 
323 1 0.044794 0.798633 0.045858 0.693257 -3.3536 0.434698 0.0296188 0.100864 
721 1 0.0382184 0.760037 0.100661 0.851593 -3.3387 0.00428116 -0.244801 -0.573996 
725 1 0.107947 0.790306 0.0932514 1.13111 -3.31873 -0.202599 0.133899 0.422197 
282 1 0.0364567 0.757219 0.998393 0.642583 -3.29016 0.662456 0.482705 -0.0224575 
292 1 0.219015 0.731537 0.0475219 0.827202 -3.38761 -0.405212 0.234591 -0.109282 
327 1 0.169241 0.78107 0.0490285 1.01757 -3.32515 -0.0580533 0.394029 -0.129084 
686 1 0.156405 0.743263 0.0979475 0.441738 -3.29677 0.0188359 -0.683973 -0.0670075 
690 1 0.224015 0.772651 0.0994495 0.666318 -3.33974 0.101699 0.470915 -0.175323 
295 1 0.329754 0.718874 0.0461496 0.747529 -3.2809 0.0787416 -0.552374 0.203159 
296 1 0.285384 0.766202 0.0479857 0.740796 -3.29877 -0.795884 -0.0419426 -0.098849 
294 1 0.339135 0.759102 -0.0035086 0.775424 -3.31902 0.118227 0.248255 0.245679 
300 1 0.345812 0.800242 0.0504377 0.698004 -3.26291 0.603124 0.519295 -0.452545 
694 1 0.291078 0.809469 0.0949769 0.92108 -3.25168 -0.250262 -0.571284 0.777455 
693 1 0.270536 0.725007 0.10121 0.618783 -3.32151 0.307728 -0.0650394 -0.143405 
697 1 0.339686 0.755416 0.0956641 1.63788 -3.2858 -0.25861 0.369928 0.913905 
299 1 0.393813 0.754891 0.050884 1.26879 -3.30227 0.730073 -0.289858 -0.240756 