ITEM: TIMESTEP
7500
ITEM: NUMBER OF ATOMS
4000
ITEM: BOX BOUNDS pp pp pp
1.4493057215087302e+00 3.9050694278490695e+01
-7.1546830031547282e-01 4.1215468300314996e+01
-7.3020004439167185e-01 4.1230200044391331e+01
ITEM: ATOMS id type xs ys zs c_csym c_peratom fx fy fz 
8 1 0.101795 0.0507734 0.0510866 0.15815 -3.33106 -0.277116 -0.0803146 -0.0992312 
2 1 0.0509568 0.053687 0.0033388 0.962304 -3.32898 -0.129063 -0.182117 -0.159564 
3 1 0.0479813 0.00103063 0.0495494 0.607608 -3.27762 0.687734 0.0811396 0.203569 
401 1 0.00239718 0.00112741 0.0987831 0.431362 -3.3265 -0.467742 0.298868 0.502231 
12 1 0.200175 0.0480816 0.0490303 0.244124 -3.31952 0.0564284 0.153032 0.0792356 
6 1 0.149321 0.0505771 9.91926e-05 0.18562 -3.27317 0.0437233 -0.175135 0.0796764 
47 1 0.152211 0.0984616 0.0529916 0.654795 -3.30903 -0.107148 0.047075 -0.208055 
7 1 0.151246 0.000133248 0.0478585 0.591521 -3.29516 -0.603152 -0.188689 0.289216 
49 1 0.197216 0.0994847 0.000559292 0.578673 -3.29042 0.118622 -0.0856773 -0.195441 
16 1 0.302898 0.0546215 0.0485182 0.910352 -3.28436 -0.489572 -0.692604 0.212568 
51 1 0.250728 0.0987569 0.0486316 0.363635 -3.30716 0.00313907 0.0632186 0.237098 
11 1 0.253497 0.00156549 0.0499602 0.447418 -3.35257 -0.19045 0.112858 0.037345 
13 1 0.301648 0.00123089 0.000170066 0.294227 -3.3407 -0.348491 0.293966 -0.166744 
20 1 0.405823 0.0472999 0.0462021 1.14791 -3.34774 -0.0485426 0.197465 0.204063 
457 1 0.401407 0.0984191 0.0964301 0.792446 -3.31433 -0.0524996 -0.0340075 0.450356 
417 1 0.399538 0.00144035 0.0966116 0.866629 -3.28824 0.489191 -0.247157 0.269373 
55 1 0.351624 0.0985614 0.0468936 0.394241 -3.26153 0.222462 0.170187 0.290529 
15 1 0.350363 0.00322864 0.0505828 0.52483 -3.28678 -0.330398 0.0055623 -0.310204 
414 1 0.351876 0.050993 0.0982113 0.334328 -3.32831 -0.0281732 0.262016 0.0507075 
57 1 0.40586 0.0975265 0.00103042 1.34598 -3.33504 -0.229942 -0.0083466 -0.470009 
24 1 0.500026 0.0484946 0.0462066 0.795297 -3.29322 -0.368604 -0.0900191 0.590504 
59 1 0.453397 0.0992494 0.0529533 1.19528 -3.23293 -0.158448 -0.363719 -0.346412 
63 1 0.549644 0.0987975 0.0528612 0.502302 -3.26181 -0.314067 0.219672 -0.490371 
422 1 0.548909 0.046923 0.0992107 0.305309 -3.32434 0.430911 0.0131757 0.091312 
22 1 0.548823 0.0476875 0.00243926 1.06888 -3.28182 0.254758 0.0792014 -0.454069 
28 1 0.597981 0.0513911 0.0493376 0.599005 -3.26235 0.0125977 -0.551653 0.124398 
426 1 0.646464 0.048934 0.096511 0.937826 -3.30838 0.236029 0.0590852 0.426331 
27 1 0.651099 0.000216452 0.0473402 0.604869 -3.29752 -0.307837 -0.0145392 0.254332 
465 1 0.599676 0.100118 0.0991833 0.263504 -3.30068 0.286335 0.00855715 0.00014201 
32 1 0.698134 0.0479764 0.0521425 0.317083 -3.30337 0.128256 0.136813 -0.20068 
30 1 0.746085 0.044334 0.0020259 0.828044 -3.33124 0.273105 0.475609 -0.0263367 
71 1 0.74937 0.0937395 0.0524179 1.19649 -3.31755 -0.00407051 0.442466 -0.39897 
36 1 0.802302 0.0473063 0.0475013 1.09593 -3.35998 -0.13173 -0.130229 0.111983 
75 1 0.8466 0.0988199 0.0492653 0.718218 -3.34847 0.375673 -0.0023036 -0.409908 
35 1 0.85429 0.000721875 0.053136 1.06455 -3.32694 -0.615589 -0.181708 -0.144108 
473 1 0.800897 0.0977626 0.0988186 0.455166 -3.27518 0.144918 0.457172 0.101015 
4 1 0.998207 0.0519977 0.0501854 0.450576 -3.31862 0.12239 -0.217361 -0.125033 
40 1 0.903165 0.0470216 0.0491228 0.878019 -3.32658 -0.107227 0.63005 0.147219 
438 1 0.951428 0.0530699 0.0994288 0.575923 -3.34407 -0.0299587 -0.189191 0.318147 
43 1 0.0499951 0.100681 0.0522404 0.296173 -3.36137 0.0198421 0.115229 -0.25061 
48 1 0.101952 0.148353 0.0517251 0.556555 -3.28901 -0.0200779 0.197913 -0.209939 
485 1 0.101107 0.200149 0.0988393 0.1992 -3.32778 0.415613 0.00417272 0.145294 
442 1 0.0516116 0.154449 0.0995793 0.651358 -3.2641 -0.0623394 -0.296882 0.363467 
45 1 0.104372 0.101303 0.000383639 0.740654 -3.35992 -0.422096 0.118061 0.171124 
42 1 0.0513788 0.152347 0.00649865 1.20633 -3.34517 -0.264371 -0.501631 -0.546364 
52 1 0.203946 0.146936 0.0454823 1.62756 -3.24427 -0.439434 0.247387 1.18269 
446 1 0.151642 0.148014 0.0977663 0.572329 -3.30691 0.574129 0.551929 0.214535 
87 1 0.153342 0.19729 0.04998 0.574083 -3.35611 0.159313 0.276585 0.305505 
46 1 0.152183 0.152551 0.00082741 0.697004 -3.29294 -0.368343 -0.263035 -0.174875 
89 1 0.203927 0.197868 0.00253462 1.05824 -3.28787 -0.323182 0.610245 -0.0902452 
56 1 0.304315 0.148012 0.052273 0.781306 -3.32362 -0.482759 -0.040918 -0.365052 
91 1 0.254618 0.198478 0.0519529 0.626091 -3.34807 -0.132993 0.286822 -0.248376 
93 1 0.3007 0.197578 0.000752188 0.280436 -3.36069 -0.115163 0.207615 -0.0663211 
60 1 0.402055 0.146129 0.0460787 1.05808 -3.3285 -0.0327243 0.591021 0.405271 
95 1 0.351617 0.196458 0.0517022 0.544765 -3.31586 0.310333 0.146375 -0.177558 
64 1 0.497474 0.148478 0.0499185 0.646196 -3.2684 0.734475 0.0648504 0.0597193 
99 1 0.456734 0.19888 0.0520354 1.72832 -3.30714 -1.0019 0.257901 0.146928 
61 1 0.498918 0.101743 0.0010018 0.678256 -3.36147 0.314584 -0.266529 -0.296289 
62 1 0.550255 0.14992 -2.10328e-05 0.213813 -3.35164 -0.297899 0.130502 0.171886 
101 1 0.499327 0.200652 0.000383171 0.363832 -3.32801 0.466643 -0.250424 -0.388886 
67 1 0.650857 0.100115 0.0455196 1.06147 -3.31023 -0.275554 0.139663 0.571731 
68 1 0.598076 0.148781 0.0498671 0.239192 -3.38039 0.300944 0.199647 0.0102368 
466 1 0.652205 0.150356 0.0999035 0.443306 -3.32815 -0.526975 -0.0997888 -0.237764 
72 1 0.702505 0.14893 0.0518139 0.837574 -3.34471 -0.080667 0.0899158 -0.082916 
76 1 0.794208 0.14926 0.0457866 1.59465 -3.31033 0.266601 -0.196667 0.383104 
474 1 0.85015 0.150873 0.092338 2.60957 -3.2838 -0.443828 -0.149711 0.878846 
113 1 0.798406 0.199638 0.00062732 0.495638 -3.36329 -0.0493033 -0.0847369 -0.276259 
44 1 0.998222 0.15121 0.0564658 1.42845 -3.21729 0.761657 -0.433291 -0.778361 
79 1 0.950509 0.100031 0.0513744 0.493089 -3.32145 -0.154847 -0.192143 -0.0774135 
80 1 0.900009 0.14795 0.0472297 0.580037 -3.20153 -0.602421 -0.032966 0.207559 
119 1 0.952517 0.19671 0.0496173 0.969023 -3.26612 -0.593582 0.856522 0.335836 
78 1 0.948356 0.147595 0.00367982 0.694252 -3.21482 0.727227 0.144088 -0.844977 
478 1 0.945796 0.149236 0.0956555 2.23446 -3.19311 0.356539 -0.252094 1.08306 
117 1 0.900969 0.196093 0.00294192 1.34585 -3.28573 -0.324433 0.251012 -0.267209 
81 1 0.998936 0.198663 0.00147243 0.354136 -3.33102 0.0249396 0.0272535 -0.453092 
83 1 0.0475872 0.20103 0.0518207 0.60154 -3.26155 0.325793 0.0611569 -0.267414 
88 1 0.103136 0.248561 0.0480165 0.826903 -3.30816 -0.0131756 0.267616 0.578671 
525 1 0.0996475 0.299195 0.0984927 0.389912 -3.32219 0.431419 0.336661 0.235291 
123 1 0.0500803 0.297298 0.0529278 0.888126 -3.33177 -0.0870943 0.345589 -0.473268 
481 1 0.00367117 0.204143 0.0999309 1.09089 -3.30055 -0.776941 -0.258744 0.356881 
85 1 0.0998049 0.201445 0.00589428 1.25484 -3.30855 0.187601 -0.194262 -0.790933 
82 1 0.0485621 0.249976 0.00385447 0.743937 -3.30522 0.49201 -0.0240425 -0.559874 
92 1 0.199314 0.250533 0.0488401 0.569808 -3.31559 0.137342 -0.363889 0.0999912 
127 1 0.150295 0.299885 0.051639 0.344226 -3.34465 0.139873 0.278058 -0.0693372 
486 1 0.154228 0.249115 0.099555 0.302338 -3.33327 -0.472957 -0.0793514 -0.0915637 
96 1 0.30779 0.250122 0.0490292 1.49635 -3.35358 -0.59873 -0.0305061 -0.0541872 
490 1 0.252736 0.253515 0.0988548 1.04576 -3.31081 -0.0390052 -0.591553 -0.161843 
131 1 0.246795 0.29859 0.0494539 0.996546 -3.30845 0.620964 0.23663 -0.142706 
533 1 0.301618 0.299478 0.0959795 1.0696 -3.33284 -0.171572 0.241265 0.291223 
90 1 0.248682 0.251185 0.000683989 0.674975 -3.36305 0.367663 -0.204907 -0.0756955 
100 1 0.398139 0.252261 0.0487488 1.46869 -3.29115 0.546365 -0.617184 0.489844 
97 1 0.403175 0.201735 0.00032417 1.06015 -3.26806 0.170656 -0.862044 0.225941 
94 1 0.355208 0.245828 0.000216927 1.01672 -3.24731 -0.726923 0.738493 -0.519998 
103 1 0.548392 0.201055 0.0514661 0.308138 -3.34415 0.10111 -0.454209 -0.300082 
104 1 0.500623 0.251082 0.0474961 0.672754 -3.23859 0.0630478 -0.0599737 0.36172 
143 1 0.55073 0.297019 0.0479635 0.715904 -3.28575 0.233956 0.363081 0.301554 
502 1 0.548494 0.250837 0.0993926 0.247246 -3.30886 0.183667 0.0997182 0.0525524 
98 1 0.450959 0.248391 0.0015115 0.510593 -3.28217 -0.366306 0.485635 -0.258825 
139 1 0.448717 0.29966 0.0532206 0.648913 -3.28437 -0.0461705 0.0281667 -0.642643 
498 1 0.45298 0.250422 0.0995576 0.436111 -3.33108 -0.459952 -0.599829 0.0473959 
107 1 0.64689 0.200388 0.0469277 0.950045 -3.29378 0.241697 -0.334212 0.347525 
108 1 0.59855 0.248125 0.0497748 0.473548 -3.29421 0.151877 0.414828 -0.0399168 
506 1 0.648333 0.250946 0.0989994 0.257049 -3.3501 0.183234 0.191031 0.176958 
106 1 0.651194 0.249424 0.00267981 0.46911 -3.32285 0.0146458 0.187053 -0.27917 
111 1 0.751224 0.200851 0.0514584 0.745137 -3.3136 -0.14745 -0.0695166 -0.198133 
112 1 0.700708 0.248717 0.0516654 0.526159 -3.28758 -0.158712 0.241671 -0.507518 
151 1 0.749701 0.297591 0.0511602 0.664677 -3.31611 0.0478276 0.166992 -0.261307 
509 1 0.696065 0.20133 0.0966472 1.25444 -3.29106 0.212283 -0.221236 0.257667 
115 1 0.849487 0.199956 0.0514578 0.696124 -3.30962 0.00225179 -0.165337 -0.338371 
116 1 0.8024 0.249372 0.0505426 0.291337 -3.33338 -0.177004 0.222276 -0.0453883 
84 1 0.997458 0.25129 0.0473172 1.33011 -3.28338 0.15715 -0.242226 0.651851 
120 1 0.896491 0.249246 0.047412 1.36163 -3.28098 0.560756 -0.0876556 0.562144 
518 1 0.948354 0.249094 0.0976165 0.876366 -3.34164 0.389333 -0.125058 -0.0250565 
159 1 0.948891 0.297693 0.0482063 0.649793 -3.3197 0.0797874 0.425149 0.412493 
128 1 0.0976005 0.350496 0.0497357 0.569352 -3.31147 0.153383 -0.28262 0.447623 
125 1 0.102088 0.302397 0.000729197 0.595799 -3.29956 -0.623168 -0.220837 0.1685 
122 1 0.0486178 0.356143 0.00314049 1.7588 -3.29163 0.235016 -0.828058 -0.232864 
132 1 0.201686 0.35009 0.0488141 0.338708 -3.35907 -0.218833 0.201428 0.137302 
167 1 0.147197 0.399385 0.0489505 0.54279 -3.35903 0.450225 -0.00900423 0.436045 
126 1 0.147825 0.351319 0.00184715 0.535705 -3.25635 0.561613 -0.016715 -0.146165 
136 1 0.300637 0.349228 0.0465515 0.45712 -3.33735 -0.305658 -0.0724762 0.356977 
171 1 0.253848 0.398818 0.0492397 0.513708 -3.34456 -0.420731 0.0981518 -0.305435 
573 1 0.299544 0.399558 0.0970369 0.217687 -3.30921 0.153804 0.0139085 -0.0103216 
135 1 0.35428 0.301502 0.0499558 0.761015 -3.2241 -0.538775 -0.178624 -0.158822 
140 1 0.398546 0.349633 0.0535307 1.13896 -3.26618 0.587292 0.283009 -0.419843 
134 1 0.35009 0.351017 0.00146147 0.874072 -3.27933 0.124104 -0.132621 -0.360719 
175 1 0.35218 0.400071 0.0482923 0.349162 -3.28384 -0.819522 -0.417285 0.0831354 
534 1 0.348438 0.349366 0.0988137 0.345122 -3.273 -0.317644 -0.221682 -0.025511 
144 1 0.502365 0.344024 0.0503238 1.88105 -3.27181 0.053788 0.567916 -0.271046 
179 1 0.456501 0.394381 0.0467101 2.48589 -3.30069 -0.440594 0.694207 0.488514 
538 1 0.451596 0.353152 0.0995278 1.25264 -3.35017 -0.0435344 -0.323903 0.317521 
138 1 0.450729 0.350101 0.00188314 0.752961 -3.30745 0.153419 -0.130787 -0.320268 
147 1 0.653326 0.301274 0.0489521 0.518311 -3.34836 -0.082438 -0.185546 0.452825 
148 1 0.600589 0.350077 0.0534055 0.874102 -3.367 -0.507279 -0.00958597 -0.205125 
187 1 0.650498 0.399194 0.050449 0.623009 -3.32641 -0.112394 0.537871 -0.0235823 
185 1 0.601514 0.399346 0.000957343 0.358137 -3.32 -0.148092 -0.0141594 -0.22243 
546 1 0.652983 0.351557 0.0978569 0.591295 -3.26969 -0.239045 -0.104566 0.335558 
145 1 0.602901 0.302109 0.00269646 0.734144 -3.26254 -0.293855 -0.361642 -0.033538 
152 1 0.702263 0.353085 0.051388 0.650919 -3.28308 0.0540694 -0.383291 -0.71707 
155 1 0.850487 0.300502 0.0540492 0.952899 -3.31722 0.0759822 0.313399 -0.504632 
553 1 0.800909 0.30101 0.0987399 0.646539 -3.30338 0.19569 -0.0761685 0.269166 
156 1 0.795861 0.349336 0.0497743 1.42396 -3.356 0.410116 -0.0215826 0.0259304 
195 1 0.854245 0.398845 0.0532387 1.32443 -3.23089 -0.300068 0.110339 -0.282059 
593 1 0.801811 0.399486 0.0976834 1.02791 -3.32922 -0.311651 0.0632257 0.144668 
154 1 0.850673 0.350899 0.000703419 0.413582 -3.30697 -0.0947604 -0.174087 0.398784 
157 1 0.899459 0.30243 0.00207283 0.728263 -3.31749 -0.290519 -0.152584 -0.13302 
124 1 0.997912 0.350039 0.0511312 0.598547 -3.35993 -0.0879256 0.0683668 -0.281333 
160 1 0.903255 0.351757 0.0520269 0.52261 -3.30882 0.319758 -0.2629 -0.121174 
163 1 0.0541191 0.402222 0.0523535 1.05079 -3.2504 -0.365741 -0.449085 -0.163839 
168 1 0.0997549 0.449237 0.051067 0.498728 -3.32622 0.403886 0.527006 -0.0353215 
164 1 0.00629879 0.450573 0.0491974 1.0582 -3.28697 -0.448343 0.226688 0.161992 
162 1 0.0536575 0.451405 0.000322815 0.310815 -3.29765 0.117623 0.102215 -0.285127 
172 1 0.201666 0.447717 0.0485402 0.450818 -3.32937 0.191504 -0.0991444 0.249733 
207 1 0.153275 0.4988 0.0506339 0.49865 -3.27009 -0.645485 -0.280832 -0.297028 
209 1 0.201126 0.494047 0.00127358 1.07997 -3.29078 0.239959 0.783168 0.0177907 
566 1 0.153496 0.447674 0.0966727 1.23014 -3.30061 -0.403045 -0.290068 0.130101 
176 1 0.302232 0.451745 0.0449126 0.976278 -3.27632 -0.0467285 -0.482276 1.01158 
170 1 0.252257 0.44797 0.000800412 0.562907 -3.26342 -0.206342 0.220398 -0.225027 
213 1 0.303063 0.499331 0.0029981 1.08515 -3.27943 -0.20506 0.128894 -0.765533 
180 1 0.400803 0.442119 0.0471796 2.00705 -3.26887 0.494534 0.89159 0.314008 
574 1 0.352494 0.450555 0.0972339 0.491376 -3.33991 -0.141533 -0.0955109 -0.0784292 
183 1 0.551 0.402995 0.0478005 0.562247 -3.3168 -0.329912 -0.597599 0.162044 
184 1 0.503288 0.452015 0.0450482 0.780732 -3.27731 -0.278243 -0.219248 0.304909 
219 1 0.448487 0.497782 0.0471509 0.894209 -3.37092 -0.0344187 0.301103 0.00958348 
223 1 0.552745 0.497556 0.0435686 2.29558 -3.28745 -0.426474 0.920779 0.317327 
621 1 0.501573 0.499535 0.0952461 0.521549 -3.27442 -0.155393 0.0594372 0.135694 
578 1 0.452163 0.450288 0.0954612 0.730597 -3.32798 -0.488343 0.0312883 0.0856825 
582 1 0.552787 0.456178 0.0970223 1.1619 -3.27748 0.0343402 -0.459227 0.193959 
178 1 0.451551 0.44641 0.00132715 1.26634 -3.26878 -0.0471708 0.213259 -0.461159 
188 1 0.599914 0.451397 0.0473656 0.386811 -3.2532 0.333537 -0.194485 0.147869 
186 1 0.649527 0.449307 0.000362414 0.558336 -3.2449 0.699529 0.300061 0.428897 
585 1 0.595999 0.402715 0.098553 0.99715 -3.32269 0.34562 -0.235035 0.032138 
586 1 0.645912 0.451861 0.100135 0.718793 -3.36016 0.188976 -0.0696888 0.111617 
191 1 0.750379 0.402625 0.0476176 0.767654 -3.29212 -0.291415 0.186991 0.253157 
192 1 0.699755 0.456552 0.0556461 2.66266 -3.32778 -0.0327308 -0.45749 -0.589135 
190 1 0.745268 0.453715 -1.6194e-05 1.70757 -3.34813 0.47779 -0.24409 0.18362 
589 1 0.7021 0.401679 0.0970344 1.00572 -3.28511 -0.277384 0.232047 0.481861 
196 1 0.804251 0.450572 0.0503612 0.594824 -3.29651 -0.350833 -0.00667247 0.295645 
194 1 0.848124 0.451349 0.000757474 0.762664 -3.26176 0.676839 -0.116896 -0.190971 
193 1 0.803355 0.402497 0.00634533 2.15572 -3.27114 -0.156265 -0.254169 -0.805591 
199 1 0.950259 0.406042 0.0470888 1.64976 -3.31643 0.0421869 -0.582244 0.0425704 
561 1 1.00001 0.404236 0.096091 1.76072 -3.31185 0.359118 -0.571226 0.480755 
200 1 0.897365 0.450082 0.0506234 1.10839 -3.29707 0.516761 0.255899 -0.203078 
598 1 0.951625 0.449009 0.0992331 0.635129 -3.26841 0.207203 0.93388 0.144986 
239 1 0.953172 0.499413 0.0499246 0.741752 -3.32708 -0.418944 -0.0381616 0.0778165 
198 1 0.952734 0.452232 0.00139798 0.387342 -3.35198 -0.148249 -0.00577104 -0.0457591 
203 1 0.0514273 0.500734 0.0497357 0.223716 -3.31184 0.101241 0.199093 0.520256 
208 1 0.100774 0.552073 0.049001 0.594112 -3.27949 -0.182294 -0.24604 0.781757 
204 1 0.000697622 0.549627 0.0503862 0.487714 -3.29978 0.519729 0.208722 0.351744 
245 1 0.0996257 0.598912 0.00175942 0.360679 -3.34162 0.308146 0.332942 -0.0442313 
205 1 0.0999572 0.501473 1.93117e-05 0.420571 -3.26509 0.185769 -0.727023 -0.14702 
201 1 0.00191293 0.503331 0.00198852 0.466896 -3.28506 -0.0303113 -0.391427 -0.402594 
202 1 0.0534067 0.549089 0.000798022 0.60906 -3.25327 -0.485692 0.199268 -0.0763327 
212 1 0.200727 0.545285 0.0532598 0.710255 -3.29267 -0.0261545 0.75396 -0.49542 
247 1 0.152672 0.599331 0.0518967 0.489944 -3.34929 0.161311 -0.0812235 -0.127803 
249 1 0.203699 0.596888 0.00167791 0.543952 -3.31446 -0.701758 0.00634709 -0.346068 
206 1 0.147547 0.545396 0.0040519 1.37156 -3.28979 0.920203 0.67158 -0.660396 
211 1 0.251414 0.502144 0.0507174 0.863602 -3.28232 -0.330228 -0.935952 -0.171661 
613 1 0.303332 0.500396 0.0949005 0.770334 -3.27806 -0.0770527 -0.268535 0.462933 
216 1 0.298371 0.54914 0.0478872 0.594471 -3.30612 0.685356 0.341498 0.198143 
251 1 0.249254 0.599154 0.0497448 0.414002 -3.29539 0.0334784 -0.101253 0.417255 
653 1 0.299338 0.596212 0.0983012 0.685233 -3.29785 0.0603628 0.460447 0.065266 
253 1 0.300028 0.598104 0.000753055 0.265228 -3.29153 -0.145559 -0.220146 0.170042 
215 1 0.353512 0.500348 0.0496469 0.8152 -3.3251 0.46953 0.0720809 -0.0844803 
220 1 0.40205 0.552231 0.0442561 1.55253 -3.33975 -0.102929 -0.605101 0.493033 
255 1 0.351371 0.600127 0.0535318 1.62028 -3.32992 -0.0502376 -0.0647493 -0.636627 
657 1 0.405911 0.597942 0.0986583 1.22945 -3.31648 -0.376665 0.042799 0.34992 
224 1 0.502841 0.550627 0.0500047 0.838943 -3.29104 -0.402192 -0.444047 0.0147919 
622 1 0.549254 0.550732 0.0989836 0.332026 -3.24853 -0.320634 0.160713 -0.0739079 
259 1 0.453328 0.597563 0.0497989 0.618755 -3.26633 -0.199886 0.205595 -0.323219 
222 1 0.546518 0.553634 0.000970516 1.33322 -3.23207 1.29004 -0.780484 -0.247383 
227 1 0.647947 0.503471 0.0512364 0.594306 -3.2622 -0.0319667 -0.305717 0.358784 
228 1 0.600088 0.553688 0.0533056 0.681835 -3.27964 -0.332635 -0.218207 0.0977383 
225 1 0.604134 0.502828 0.00128809 1.2994 -3.24548 -0.44611 -0.311931 -0.544004 
226 1 0.642769 0.553419 0.00202235 1.97348 -3.19917 1.11526 0.162072 -0.323458 
231 1 0.756302 0.499908 0.0496771 1.95349 -3.32821 -0.754719 0.159841 0.144035 
229 1 0.695592 0.502114 0.00246165 1.0498 -3.33099 0.108772 -0.0366545 -0.279841 
232 1 0.697596 0.549542 0.0498084 0.806987 -3.28202 0.324564 0.12111 0.203292 
269 1 0.700025 0.598471 0.0011773 0.4789 -3.31162 -0.482977 -0.035737 -0.102773 
630 1 0.74846 0.551702 0.0984555 1.08684 -3.39111 -0.00795113 -0.166637 0.0455599 
230 1 0.747183 0.548705 0.00241181 0.634865 -3.31263 0.521236 0.0779165 0.0233481 
235 1 0.854831 0.50028 0.0501766 0.468191 -3.29466 -0.303939 0.452459 0.00859931 
236 1 0.803079 0.551036 0.0528356 0.653697 -3.32281 -0.225303 0.0252699 -0.269488 
275 1 0.849907 0.5997 0.051521 0.762807 -3.33244 0.243721 0.00450476 -0.0193649 
633 1 0.804954 0.501593 0.0965269 1.18072 -3.29492 -0.572761 0.135524 0.558283 
234 1 0.848026 0.551922 0.000624188 0.447668 -3.3456 0.234069 -0.10174 0.294722 
237 1 0.900423 0.502002 0.000986203 0.280255 -3.34225 0.32806 0.18375 0.169226 
240 1 0.902622 0.553055 0.0508971 0.789852 -3.28758 -0.468127 -0.388789 -0.339723 
638 1 0.946587 0.55724 0.0989279 6.41269 -3.25546 0.552158 -0.576064 0.749146 
279 1 0.954342 0.597752 0.0519053 1.47114 -3.2362 0.309492 0.783014 -0.0128047 
238 1 0.953171 0.551475 0.00209065 0.276664 -3.34096 -0.462572 0.12333 -0.505629 
243 1 0.050078 0.603234 0.0555405 1.30414 -3.30142 -0.0659382 -0.38372 -0.508278 
248 1 0.104438 0.648177 0.0521368 0.772042 -3.29708 -0.146311 -0.10123 -0.280266 
242 1 0.0525252 0.650147 0.00391244 0.416809 -3.34164 0.103198 0.245155 -0.273882 
241 1 0.00603502 0.602714 0.00218493 1.10405 -3.32901 -0.635693 -0.330465 0.166268 
285 1 0.102551 0.69942 0.0022503 0.261902 -3.2627 0.0837576 -0.142194 0.029601 
685 1 0.0999576 0.700119 0.095976 1.51097 -3.20564 0.214579 -0.0902318 1.05408 
252 1 0.199957 0.649927 0.0478478 1.16367 -3.29677 0.0297755 -0.18353 0.268923 
287 1 0.149783 0.696705 0.0542432 1.38216 -3.22175 0.354608 0.461175 -0.78246 
689 1 0.205579 0.695632 0.0943253 3.55543 -3.22205 -0.492302 0.640539 0.745867 
250 1 0.251635 0.647196 0.00406231 1.0718 -3.28026 -0.0526358 0.570981 -0.478901 
256 1 0.29895 0.649833 0.0523602 0.708464 -3.29655 0.278397 -0.0983752 -0.177178 
293 1 0.305091 0.698625 0.000761901 0.946611 -3.30153 -0.820894 -0.0288038 -0.522284 
260 1 0.403104 0.646701 0.0470051 0.708396 -3.3681 -0.0426813 0.0836687 -0.208302 
697 1 0.397492 0.695536 0.0965048 1.72315 -3.2687 0.205609 0.294043 0.208961 
295 1 0.351466 0.696757 0.0465846 0.977018 -3.23567 -0.0457397 0.0535822 0.673617 
263 1 0.550378 0.602557 0.049298 0.577982 -3.31796 -0.247796 0.0483811 0.306704 
264 1 0.499157 0.649959 0.0441678 1.1227 -3.31772 -0.134846 0.0792836 0.725849 
658 1 0.45184 0.648717 0.099511 0.551158 -3.32038 0.0748406 0.444579 -0.115908 
267 1 0.649437 0.600143 0.0514491 0.542267 -3.33189 0.103589 0.456678 0.34782 
268 1 0.596782 0.653004 0.0534067 0.479735 -3.3604 0.0625286 -0.0197165 -0.235133 
266 1 0.649986 0.650981 0.000329506 0.194785 -3.31453 0.128506 0.00157751 0.233592 
265 1 0.600531 0.603842 0.00232502 0.599876 -3.2765 -0.254771 0.0645698 -0.229723 
271 1 0.746599 0.60222 0.0512476 0.591692 -3.34506 0.306413 -0.320369 0.109716 
272 1 0.697679 0.651265 0.0495003 0.557623 -3.34624 -0.0205343 0.110291 0.232366 
311 1 0.752672 0.697818 0.0444349 1.52465 -3.34286 -0.0364457 0.140663 0.455051 
670 1 0.750683 0.653367 0.0984719 1.01089 -3.26681 -0.090193 -0.466086 0.0779773 
273 1 0.795035 0.601853 0.000332051 1.14099 -3.30044 0.23386 -0.711473 0.254902 
276 1 0.801518 0.64837 0.0515938 0.389087 -3.32609 -0.110705 0.217148 -0.39634 
274 1 0.852734 0.643645 0.00249178 1.66208 -3.25797 -0.27078 0.798903 0.0860574 
315 1 0.854908 0.699258 0.0512294 0.738882 -3.38929 -0.0552947 -0.140615 -0.164018 
313 1 0.806035 0.697576 8.71893e-05 0.981797 -3.32242 -0.197689 -0.10911 0.102575 
713 1 0.800505 0.697584 0.0986812 0.561286 -3.25816 0.13233 0.434054 -0.100285 
244 1 0.998237 0.652668 0.0516766 0.845522 -3.36264 0.172371 -0.0546017 0.0880622 
280 1 0.907038 0.646984 0.0506666 2.07868 -3.27329 -0.709712 0.587528 0.380231 
278 1 0.95206 0.652203 0.00198076 0.527556 -3.26057 0.349918 -0.0709676 -0.402407 
277 1 0.904823 0.602662 0.00537496 1.46942 -3.25223 -0.16171 -0.857064 -0.766258 
283 1 0.0537208 0.700287 0.0505013 0.411182 -3.27992 -0.631869 -0.217914 -0.233782 
288 1 0.100464 0.750886 0.0491963 0.540902 -3.29318 0.457537 0.0174608 0.490314 
323 1 0.0490667 0.797091 0.0522324 0.574714 -3.3443 0.172888 0.388431 0.00902315 
282 1 0.0530649 0.749298 0.00269762 0.494348 -3.26927 -0.685732 0.192001 -0.139675 
284 1 0.00040305 0.748653 0.0536213 0.6027 -3.33482 0.0319125 0.276445 -0.302606 
281 1 5.02602e-05 0.702043 0.00198911 0.422148 -3.31872 0.327223 -0.284556 0.108073 
289 1 0.203563 0.703331 0.00398062 1.66034 -3.33889 -0.359197 -0.58279 -0.15915 
292 1 0.198877 0.748147 0.0543411 1.5105 -3.3097 0.0692232 0.260029 -0.528298 
327 1 0.150549 0.799703 0.0507732 0.251676 -3.37892 -0.073231 0.00139691 -0.0498432 
286 1 0.150537 0.749323 0.00128515 0.326564 -3.33396 0.275975 0.129056 0.1729 
291 1 0.256426 0.705516 0.0509824 2.33729 -3.23521 -0.171764 -0.410087 -0.616243 
296 1 0.306625 0.752499 0.046406 1.67903 -3.30432 -0.344527 -0.0824077 0.547396 
690 1 0.254228 0.754663 0.0964477 1.74069 -3.23191 -0.442496 -0.569276 0.0966764 
331 1 0.247195 0.799757 0.0501558 0.673323 -3.29489 0.258855 -0.0280333 -0.102439 
693 1 0.300033 0.701589 0.0997486 0.616785 -3.30801 0.475094 -0.19763 0.212385 
300 1 0.39467 0.752522 0.0485447 1.47567 -3.29809 0.179669 -0.408158 0.0935271 
698 1 0.444208 0.746446 0.099245 1.69213 -3.2788 0.401047 0.268178 -0.14151 
737 1 0.403572 0.799164 0.0968535 1.31584 -3.29908 -0.654225 0.247312 0.678217 
299 1 0.448066 0.701336 0.0501145 0.908023 -3.34546 0.0619631 -0.17197 -0.473386 
701 1 0.498709 0.704205 0.0974421 1.41669 -3.278 -0.145555 -0.307687 0.430591 
303 1 0.547612 0.702848 0.0494462 0.552023 -3.30559 0.199154 -0.524966 -0.18319 
304 1 0.500723 0.751422 0.051235 1.02058 -3.27568 -0.20435 -0.345642 -0.238896 
339 1 0.448771 0.795769 0.0483944 0.96186 -3.22867 0.27868 0.474397 -0.1232 
741 1 0.49621 0.798544 0.0988317 0.645241 -3.33503 0.393205 -0.314188 0.119462 
307 1 0.647599 0.701041 0.0507929 0.342807 -3.35135 0.128738 -0.0204859 0.0879196 
308 1 0.59576 0.749487 0.049035 0.78257 -3.32899 0.313074 0.284645 0.0387898 
306 1 0.651363 0.754041 0.00118874 1.01333 -3.31046 0.109216 -0.48186 -0.278752 
347 1 0.652967 0.796679 0.0510439 0.710481 -3.32904 -0.289466 0.225395 -0.165491 
745 1 0.599527 0.794494 0.0992217 1.25672 -3.28197 0.0411869 0.96705 -0.348643 
312 1 0.702649 0.74616 0.0520943 1.17152 -3.3549 0.0126829 0.245285 -0.0880028 
710 1 0.755383 0.75064 0.100066 0.802608 -3.32992 -0.380239 -0.211627 -0.0331771 
351 1 0.750268 0.799175 0.0502453 0.392818 -3.30498 0.188185 -0.172257 -0.370191 
349 1 0.703609 0.798328 0.000467485 0.559903 -3.35135 -0.0119687 0.162726 -0.183822 
309 1 0.700272 0.703753 2.35963e-05 0.837943 -3.3043 0.0285446 -0.37023 0.0243409 
316 1 0.804037 0.749148 0.0502776 0.358155 -3.277 -0.693866 -0.217375 -0.318174 
355 1 0.8504 0.797992 0.05039 0.591514 -3.27446 -0.0673258 0.626087 -0.418408 
753 1 0.800993 0.800276 0.0976822 0.651654 -3.24856 -0.0104278 -0.170708 0.5388 
319 1 0.947496 0.705333 0.0500721 1.7721 -3.32518 -0.0505243 -0.523474 0.191829 
320 1 0.899936 0.753693 0.0541015 1.2812 -3.26494 -0.0106566 -0.471523 -0.545766 
357 1 0.900794 0.800015 0.000533472 0.405292 -3.30872 -0.108781 -0.419739 0.309728 
321 1 0.997506 0.799588 0.00433899 0.445762 -3.37456 -0.0875092 -0.0365666 -0.192182 
328 1 0.0997626 0.851265 0.0545132 0.520433 -3.27275 -0.0357487 -0.497719 -0.710061 
322 1 0.0446676 0.85126 0.0032235 0.714974 -3.30355 0.50143 -0.509955 0.0245714 
363 1 0.0503466 0.895643 0.0544885 1.03009 -3.25446 -0.0256501 0.670641 -0.205527 
324 1 0.000781841 0.848462 0.0543593 0.593972 -3.30569 -0.380875 0.158283 -0.128141 
325 1 0.098773 0.801059 0.000602489 0.385701 -3.33878 -0.0395673 0.0622958 0.172194 
365 1 0.0976277 0.898876 0.0013683 0.145193 -3.31517 0.233 0.337378 0.291515 
332 1 0.201636 0.849509 0.0529937 0.554044 -3.32084 -0.468573 0.221375 -0.127177 
369 1 0.197653 0.897238 0.00313897 0.586943 -3.33122 0.14984 0.365596 -0.190547 
329 1 0.200895 0.802813 0.000681752 0.683255 -3.28134 -0.486696 -0.629497 -0.0922496 
326 1 0.147032 0.850406 0.00229643 0.219544 -3.34029 0.257111 -0.178209 -0.0474794 
336 1 0.29697 0.853215 0.0497867 0.294158 -3.32077 0.141468 -0.252676 0.177339 
733 1 0.298397 0.801887 0.0963708 0.757447 -3.33041 0.593025 0.481172 0.380376 
335 1 0.348527 0.804868 0.0469975 0.902574 -3.27783 0.0850939 -0.060704 0.223613 
340 1 0.398258 0.850228 0.0533299 1.10399 -3.34192 0.107087 0.193616 -0.663002 
337 1 0.401082 0.802199 0.000815904 0.958708 -3.27971 -0.404924 0.0791896 0.0752209 
734 1 0.346783 0.853957 0.100252 0.884874 -3.2626 0.356395 -1.01336 -0.0830938 
334 1 0.344413 0.854386 -3.56856e-05 0.867454 -3.30849 0.652837 -0.603522 0.192305 
343 1 0.544063 0.801107 0.0465027 1.8186 -3.26308 0.935949 -0.112105 0.444246 
344 1 0.499168 0.849922 0.0494274 0.185561 -3.32966 -0.013874 0.0461872 -0.0535322 
738 1 0.451293 0.848101 0.0995662 0.327726 -3.28918 -0.174394 0.225893 -0.0647234 
379 1 0.449355 0.89641 0.0504603 0.599512 -3.33739 -0.299525 0.423951 -0.237264 
781 1 0.50125 0.899989 0.099299 0.634314 -3.25502 -0.048132 -0.240019 -0.304062 
381 1 0.500319 0.897602 0.000397074 0.416517 -3.29827 -0.0927636 0.23082 0.0875987 
348 1 0.600768 0.846649 0.0509841 0.486627 -3.35177 -0.329736 -0.330571 -0.0628659 
387 1 0.647234 0.895485 0.0509209 1.25069 -3.23803 0.654915 0.4179 -0.422092 
746 1 0.653937 0.848654 0.0976455 0.495742 -3.28117 -0.57295 0.0411917 0.224604 
785 1 0.601526 0.898185 0.0974367 0.777571 -3.29934 -0.321073 0.028877 0.78791 
352 1 0.700572 0.849469 0.0491101 0.275893 -3.31025 0.0619839 -0.0537775 0.0675944 
350 1 0.750967 0.852146 0.00359193 0.567197 -3.28681 -0.0285747 -0.381271 -0.487751 
389 1 0.701155 0.899502 0.00363231 0.585319 -3.3336 -0.329871 0.0320974 -0.371202 
749 1 0.703718 0.80079 0.0978677 0.561701 -3.28943 -0.143163 -0.30542 0.430957 
750 1 0.755684 0.848984 0.0994391 1.265 -3.28996 -0.856943 0.251058 0.54062 
356 1 0.799011 0.850525 0.0513087 0.321362 -3.29171 0.604766 -0.0229766 -0.269248 
354 1 0.854605 0.851626 0.00583663 1.20763 -3.33204 -0.784364 -0.136511 -0.392351 
359 1 0.94704 0.803283 0.0503658 0.902714 -3.30389 0.284578 -0.253849 0.329684 
360 1 0.897713 0.851693 0.0556264 0.72586 -3.25993 0.0490732 -0.0530305 -0.0996714 
358 1 0.945991 0.853185 0.00278681 0.723188 -3.29366 0.61782 -0.145487 0.62361 
368 1 0.0981826 0.950473 0.0513433 0.213367 -3.40045 0.00372228 -0.0411582 -0.247779 
364 1 0.00524164 0.946582 0.0544835 1.86174 -3.24244 -0.280588 0.197359 -0.518016 
361 1 0.00126051 0.901007 0.00363215 0.490039 -3.27232 -0.594951 -0.244338 0.0181295 
1 1 0.00300325 0.999205 0.00306091 0.806063 -3.28568 -0.541556 0.429536 -0.676724 
362 1 0.0467201 0.948743 0.00127441 0.473489 -3.26096 0.917147 0.262614 0.0447896 
409 1 0.198183 0.998073 0.0974888 0.886732 -3.3267 0.277932 0.238554 0.625145 
367 1 0.149145 0.900886 0.0525818 0.234604 -3.32955 0.0454131 0.0373095 -0.135502 
372 1 0.200649 0.950389 0.0541932 0.881762 -3.30493 -0.212395 -0.183868 -0.520376 
371 1 0.250209 0.900803 0.0510296 0.212322 -3.31011 -0.179035 0.225488 0.0768735 
376 1 0.3014 0.951677 0.0478196 0.506974 -3.22762 -0.315382 0.375904 0.652759 
770 1 0.252856 0.950293 0.0995475 0.15358 -3.33975 0.0202956 0.0635442 0.033962 
370 1 0.250732 0.9522 0.00397095 0.992502 -3.31419 -0.727333 -0.0638969 -0.602759 
373 1 0.295657 0.901651 0.000221229 0.30332 -3.25286 0.0691686 0.0792474 -0.048014 
777 1 0.396118 0.900114 0.098888 0.546721 -3.27843 0.131681 -0.14025 -0.160506 
375 1 0.346589 0.905202 0.047964 0.815196 -3.27481 0.540351 -0.83731 0.0504536 
380 1 0.396436 0.953279 0.0487903 0.801727 -3.31048 0.551251 -0.509262 0.166313 
374 1 0.349221 0.952195 0.00103655 0.376755 -3.28576 0.0768724 -0.171469 -0.787248 
23 1 0.548187 0.995684 0.0481691 0.571636 -3.36683 0.253871 0.141647 0.0696855 
19 1 0.453261 0.996464 0.0477356 0.70959 -3.3068 -0.241173 0.0755988 0.318697 