ITEM: TIMESTEP
16000
ITEM: NUMBER OF ATOMS
4000
ITEM: BOX BOUNDS pp pp pp
3.1769370876403342e+00 3.7323062912359092e+01
-3.5748894196187520e+00 4.4074889419617733e+01
-3.1769453001724912e-01 4.0817694530017789e+01
ITEM: ATOMS id type xs ys zs c_csym c_peratom fx fy fz 
405 1 0.0381913 0.0648211 0.0982133 0.216835 -3.28363 -0.0530882 -0.011505 0.20044 
7 1 0.0877015 0.055103 0.0491915 1.82986 -3.29308 1.00517 0.28585 -0.159581 
3 1 0.0292684 0.0175597 0.047422 0.945063 -3.26005 0.139676 0.417312 -0.255009 
2 1 0.0358157 0.0645115 0.00113702 0.354558 -3.35614 -0.337439 -0.0681218 -0.284319 
5 1 0.0849975 0.0119933 0.99704 0.491755 -3.33462 -0.0374624 0.0239175 0.446807 
766 1 0.086365 0.0160197 0.0974751 0.568497 -3.33335 0.515317 -0.0543753 0.269743 
12 1 0.160829 0.0952085 0.0471642 0.828192 -3.35145 -0.0579045 -0.501964 0.43558 
11 1 0.206214 0.0438432 0.0448863 0.708389 -3.31113 -0.0836986 -0.260361 0.249877 
9 1 0.147639 0.0473278 -0.00173171 0.752428 -3.3127 0.393046 0.209737 0.268294 
409 1 0.153146 0.0504465 0.0985864 0.355916 -3.37767 -0.12972 -0.0558793 -0.112656 
410 1 0.218 0.0849305 0.0972582 0.400585 -3.30951 -0.669031 -0.0017863 0.31332 
372 1 0.147329 0.00650084 0.0501298 1.09005 -3.3657 -0.720501 0.0774974 -0.276151 
16 1 0.269374 0.074332 0.046483 1.06015 -3.23374 0.369853 0.509384 0.136929 
15 1 0.315056 0.0284751 0.0493439 1.24855 -3.32273 0.615516 -0.296261 -0.0222152 
413 1 0.261467 0.036438 0.101166 1.15775 -3.29542 0.233457 -0.104398 -0.399405 
414 1 0.328741 0.0684578 0.0988107 0.633631 -3.29463 -0.0843997 0.147892 -0.281928 
20 1 0.382531 0.0597336 0.0495044 0.737927 -3.33585 0.0571836 0.155172 -0.42714 
19 1 0.434086 0.00980052 0.0503947 0.996532 -3.26727 0.410924 0.820228 -0.664646 
418 1 0.434272 0.0587971 0.100304 1.89947 -3.31906 0.805245 -0.443393 0.270532 
17 1 0.371135 0.0184844 0.998076 1.51292 -3.33526 0.695592 0.360495 0.167927 
421 1 0.484156 0.00701734 0.100767 1.30474 -3.30527 0.489643 0.356688 -0.17441 
417 1 0.379026 0.01678 0.0967778 1.26484 -3.28955 -0.314009 0.293748 0.255665 
24 1 0.502198 0.0502693 0.048368 0.808719 -3.37416 -0.32028 -0.637452 0.260487 
28 1 0.620887 0.0304499 0.0509549 0.94354 -3.38652 -0.228124 -0.0500874 -0.0911989 
22 1 0.56209 0.0416225 -0.000546917 0.514705 -3.32937 -0.361213 -0.277413 0.118144 
65 1 0.62439 0.0769418 0.00235549 0.773892 -3.31136 0.175354 -0.324612 -0.482016 
23 1 0.549399 0.99578 0.0506158 0.836024 -3.34323 -0.000897731 0.342112 0.0563483 
422 1 0.557499 0.0387316 0.0995407 0.55062 -3.35833 -0.0998256 0.224148 -0.263337 
32 1 0.727283 0.0196811 0.0492012 1.19255 -3.2631 0.26018 -0.0403674 0.360765 
67 1 0.685373 0.0686315 0.0501757 0.654902 -3.27294 -0.518023 -0.277189 -0.244421 
469 1 0.739245 0.0603106 0.09959 0.374007 -3.314 0.514659 -0.369594 -0.00174952 
426 1 0.675914 0.0239899 0.10273 0.988136 -3.30435 -0.266922 0.199235 -0.439138 
465 1 0.623528 0.0749395 0.0948922 1.00001 -3.31941 0.145113 -0.0157969 0.59194 
30 1 0.739633 0.0634446 -0.0013237 1.36851 -3.3335 0.169088 -0.344165 0.175016 
36 1 0.797709 0.0461911 0.0516284 2.02854 -3.30951 -0.323012 0.698152 0.165772 
35 1 0.846894 -0.000186258 0.0511748 0.848296 -3.26976 -0.0573723 -0.062262 -0.0120533 
434 1 0.850855 0.0434509 0.101476 0.707839 -3.35314 0.525402 0.00566349 -0.168192 
430 1 0.7885 0.00775824 0.101879 0.57454 -3.32284 -0.369915 0.367149 0.253825 
33 1 0.781641 0.0103562 0.00145241 1.63781 -3.28645 0.381604 -0.0256286 -0.442237 
4 1 0.981741 0.0712236 0.0511782 0.613538 -3.31081 -0.0476776 0.0990238 -0.450104 
40 1 0.913683 0.03922 0.0500517 0.75778 -3.34851 -0.270842 -0.38069 0.329269 
401 1 0.972355 0.0293278 0.0948015 0.54453 -3.34259 -0.335276 -0.141407 0.440948 
437 1 0.903178 0.992556 0.0959268 0.87716 -3.35845 0.335355 0.476742 0.465343 
438 1 0.919515 0.081179 0.100641 0.520056 -3.32967 0.249816 -0.319743 0.355588 
38 1 0.968 0.02696 7.1159e-05 0.710402 -3.27062 0.658514 0.812992 0.170843 
77 1 0.91871 0.0800518 1.00416 0.216136 -3.33587 0.161806 -0.0738588 -0.299055 
8 1 0.0497343 0.109185 0.0485599 1.18085 -3.31089 -0.304509 -0.533126 0.0449432 
47 1 0.113207 0.143884 0.0458317 0.866739 -3.27039 -0.127163 -0.182699 0.0307391 
406 1 0.101839 0.0995772 0.100331 0.533943 -3.29831 0.191144 -0.0670222 -0.418019 
445 1 0.0599712 0.149216 0.0971829 1.52302 -3.3072 -0.936214 -0.028394 0.174468 
52 1 0.173741 0.178486 0.0477037 0.244947 -3.36028 0.318476 0.110665 -0.198031 
51 1 0.228594 0.128614 0.0494943 1.12821 -3.32108 -0.467309 -0.232568 -0.20887 
449 1 0.164792 0.135428 0.0984759 0.273971 -3.328 0.0510493 -0.158927 0.0697121 
450 1 0.228256 0.167781 0.098735 0.79168 -3.31267 0.213554 0.430566 0.0115256 
49 1 0.170967 0.133159 -0.00424742 1.15679 -3.33074 -0.114115 0.489116 0.229861 
55 1 0.327012 0.11333 0.0478957 2.14003 -3.35226 0.87351 -0.00162075 0.0845802 
56 1 0.288286 0.165474 0.0469821 0.82779 -3.27956 -0.161871 -0.0131705 0.402255 
453 1 0.279432 0.118038 0.0989236 0.756662 -3.27079 0.157352 0.450074 0.227552 
454 1 0.339643 0.158782 0.0998032 0.770562 -3.34166 -0.0351442 -0.136164 -0.444822 
59 1 0.44904 0.097373 0.051271 0.325015 -3.29366 0.227515 -0.0390978 -0.433726 
60 1 0.400014 0.146545 0.0504724 0.637188 -3.34657 -0.345476 0.201867 -0.37409 
58 1 0.459967 0.140028 0.00171118 0.382872 -3.30707 0.0444596 -0.247332 0.0435737 
458 1 0.455544 0.139055 0.0997834 0.559305 -3.30044 0.0744919 0.279858 -0.0684484 
457 1 0.390684 0.105693 0.0952254 1.11992 -3.2806 -0.52421 0.214617 0.478614 
63 1 0.569186 0.081727 0.0498903 0.48214 -3.27303 -0.543041 0.128745 0.0181314 
61 1 0.510713 0.0904208 -0.000622271 0.217628 -3.28457 -0.167186 0.0814826 0.0418977 
64 1 0.516433 0.132752 0.048012 0.33017 -3.32204 -0.145009 -0.173193 0.385514 
103 1 0.580778 0.16583 0.049603 0.372547 -3.37066 0.294295 0.331024 0.0751316 
461 1 0.507926 0.0916476 0.0970608 0.60537 -3.35715 -0.128971 -0.191907 0.374795 
462 1 0.574605 0.128383 0.102753 1.7083 -3.28119 -0.684916 -0.670858 -0.462235 
68 1 0.630819 0.117416 0.0473512 0.556853 -3.30431 0.151987 0.4882 0.425879 
72 1 0.697339 0.155494 0.0526917 0.891875 -3.34037 -0.36592 -0.479265 0.0832499 
71 1 0.748515 0.101765 0.0510317 0.121881 -3.26665 -0.128182 -0.0219249 -0.106684 
505 1 0.636331 0.158614 0.101623 0.89523 -3.31739 0.506548 0.583381 -0.241432 
466 1 0.688662 0.109907 0.0945527 1.14852 -3.33201 0.118004 0.385304 0.64123 
75 1 0.864781 0.0872181 0.054143 0.613868 -3.24785 -0.536408 -0.676021 -0.0791239 
473 1 0.804498 0.0927124 0.0984451 0.534635 -3.3343 0.0792033 -0.0227793 0.338968 
76 1 0.812345 0.134362 0.0529609 0.460708 -3.26018 0.269241 0.665754 -0.0203855 
73 1 0.807805 0.0933458 0.00666417 1.13892 -3.30178 -0.475238 -0.318489 -0.592515 
470 1 0.757895 0.144095 0.0998228 0.702083 -3.31995 -0.701177 -0.207175 0.157499 
477 1 0.871483 0.13032 0.100081 0.326004 -3.33558 -0.290099 0.135861 0.22098 
74 1 0.868063 0.127593 0.00727915 1.05162 -3.25202 0.126096 0.450216 -0.83436 
43 1 0.995352 0.154508 0.0473499 0.90338 -3.30121 -0.0972882 0.654061 0.567136 
79 1 0.926842 0.120397 0.0537222 0.689428 -3.25145 0.658373 0.466071 -0.306405 
80 1 0.879944 0.170656 0.049229 0.665319 -3.37173 -0.297552 0.384059 0.477102 
402 1 0.990637 0.113658 0.0956318 0.961449 -3.35953 -0.0932982 0.328059 0.454417 
441 1 0.938325 0.166555 0.0988608 0.694432 -3.3279 -0.160013 -0.166122 -0.060379 
41 1 0.983909 0.116335 0.00281171 0.381003 -3.33632 0.080276 -0.559552 -0.460049 
78 1 0.931758 0.16339 0.000153517 0.489348 -3.32704 0.273977 0.133108 0.1854 
446 1 0.117846 0.184852 0.0969005 0.529495 -3.29525 0.0978306 0.494153 0.411273 
48 1 0.0585479 0.194108 0.0501796 0.427059 -3.35529 -0.0560302 -0.0972184 -0.236931 
42 1 -0.00340441 0.19996 0.00126748 0.623209 -3.30894 0.51247 -0.0190313 0.00743796 
83 1 0.00766816 0.247248 0.0466341 1.17379 -3.29352 -0.346487 -0.578955 0.120988 
485 1 0.0620459 0.238305 0.0982108 0.717911 -3.33091 0.404416 -0.323559 0.189111 
85 1 0.0645893 0.235021 1.00053 0.333847 -3.37133 -0.0369339 0.106627 -0.214865 
442 1 1.00303 0.200843 0.0967201 0.678132 -3.31225 -0.00975644 -0.219991 0.457817 
46 1 0.114033 0.185751 0.997979 0.455943 -3.29538 0.36638 0.0396153 0.424964 
87 1 0.122988 0.228882 0.0508464 0.414876 -3.31191 -0.240602 -0.0599872 -0.28006 
91 1 0.235109 0.216787 0.0486433 0.739824 -3.28455 -0.0115681 -0.642388 -0.394694 
92 1 0.182699 0.265313 0.050428 0.652321 -3.26067 -0.171516 0.0904039 -0.644676 
86 1 0.126886 0.27033 0.995597 0.706351 -3.35957 0.125285 0.0354711 0.471512 
489 1 0.180788 0.222347 0.0992138 0.53486 -3.26762 -0.615305 -0.79272 0.0857476 
89 1 0.178774 0.221631 0.998061 0.367061 -3.34188 -0.00900318 -0.310595 0.192291 
486 1 0.129573 0.270077 0.0989155 0.626004 -3.29987 -0.546194 -0.00956743 0.135621 
490 1 0.238612 0.256833 0.0938655 1.07457 -3.24141 0.991608 0.551563 0.777529 
95 1 0.350442 0.203394 0.0485134 0.847975 -3.26589 -0.230045 -0.584605 -0.031282 
96 1 0.302005 0.252491 0.0484896 0.673757 -3.28841 -0.656201 -0.411564 -0.221007 
493 1 0.28984 0.206521 0.0944766 0.93467 -3.35741 0.124973 0.246079 0.623509 
94 1 0.359941 0.243861 -0.00191955 0.502797 -3.22375 -0.898818 -0.610926 0.0777239 
494 1 0.353595 0.243754 0.0978647 0.351397 -3.3461 0.28544 0.0536269 0.295338 
99 1 0.462601 0.182317 0.0481575 0.383402 -3.34825 0.23514 0.152437 0.133432 
100 1 0.41335 0.234814 0.0495786 0.273081 -3.30114 0.293846 0.135698 0.0345073 
139 1 0.476858 0.270237 0.050613 0.204038 -3.31908 -0.12757 0.200817 -0.100068 
497 1 0.405615 0.191297 0.0938465 0.998198 -3.32209 0.123206 0.1605 0.543362 
97 1 0.406393 0.192088 0.997739 1.07093 -3.27536 0.294586 -0.322059 0.85744 
98 1 0.472954 0.226662 1.00276 0.305186 -3.31095 0.0849791 -0.139482 0.0778666 
498 1 0.472304 0.229282 0.0965598 0.951071 -3.28856 -0.597252 -0.726576 0.332721 
104 1 0.52945 0.216327 0.0519093 0.526846 -3.29055 -0.0600312 0.0702217 -0.426499 
108 1 0.59458 0.251913 0.0472895 0.666109 -3.3508 -0.0444937 0.222173 0.225336 
502 1 0.583957 0.211797 0.0986165 0.414162 -3.29468 0.224832 -0.352914 0.0290898 
501 1 0.519623 0.174127 0.0984582 0.464503 -3.36081 0.121182 0.207003 0.15591 
541 1 0.536166 0.259251 0.0964583 0.752498 -3.26463 0.147469 0.782874 -0.0668418 
107 1 0.645352 0.205181 0.0531458 1.26034 -3.32288 -0.17279 -0.640284 -0.259916 
509 1 0.699534 0.196753 0.103218 1.16656 -3.30725 0.144544 -0.324717 -0.0639686 
112 1 0.714686 0.23575 0.0526957 1.13802 -3.28494 -0.33096 0.109965 -0.534872 
506 1 0.655138 0.246463 0.0971511 0.772968 -3.26296 -0.497068 0.137377 0.181204 
109 1 0.708118 0.193748 1.00609 1.26397 -3.32398 -0.273131 0.0136355 -0.510906 
115 1 0.827139 0.222265 0.0440303 1.34764 -3.29562 0.160459 0.641836 0.97424 
111 1 0.764237 0.185696 0.0535591 0.805973 -3.3019 -0.0650885 0.248867 -0.13028 
517 1 0.838359 0.265679 0.095617 0.453533 -3.33542 -0.309325 -0.430073 0.0772969 
474 1 0.819752 0.180751 0.100392 0.506562 -3.32602 0.20924 -0.137695 -0.125408 
513 1 0.769073 0.231358 0.0974572 0.256941 -3.36247 0.385243 -0.00327713 0.49158 
110 1 0.767565 0.231774 0.000430294 0.571041 -3.22389 0.331524 -0.265353 0.482722 
44 1 0.946162 0.20673 0.0516811 1.04561 -3.33706 -0.433341 0.0995731 -0.232531 
81 1 0.949953 0.248647 -0.00180562 0.45995 -3.31059 0.0937188 0.000932011 0.0203268 
119 1 0.898521 0.256579 0.0460068 1.29666 -3.35154 -0.617152 -0.163547 0.363077 
478 1 0.880989 0.215734 0.0990881 1.00906 -3.3495 0.415696 -0.156542 -0.248164 
481 1 0.947896 0.250296 0.100235 0.582636 -3.30581 0.120182 -0.325774 -0.385521 
88 1 0.0684257 0.281723 0.049291 0.75133 -3.30452 0.489986 -0.25628 -0.249745 
123 1 0.0220028 0.328462 0.0494256 0.253618 -3.26738 0.13165 0.0486913 0.168307 
128 1 0.0833977 0.364939 0.0494371 0.251759 -3.3446 0.441414 -0.225749 0.0791146 
482 1 0.0131957 0.284645 0.0994727 0.235702 -3.28725 0.0916893 0.193006 0.10269 
525 1 0.0754405 0.321203 0.102099 0.307134 -3.32536 -0.23473 0.186833 -0.553448 
82 1 0.0147319 0.289451 0.997694 0.782987 -3.29916 0.109114 -0.509739 0.063501 
125 1 0.0799725 0.323444 0.994365 1.3798 -3.27451 -0.161352 -0.697661 0.576878 
127 1 0.132012 0.314573 0.0494211 0.388678 -3.36777 0.0216108 0.00891172 -0.268107 
132 1 0.190594 0.353287 0.0466056 1.971 -3.24237 -0.041792 -0.411745 0.391947 
526 1 0.140618 0.355725 0.101292 0.486378 -3.34404 -0.231699 0.428589 -0.18772 
529 1 0.187361 0.308566 0.0995471 0.792336 -3.30061 0.430016 -0.0930046 -0.370428 
131 1 0.24715 0.298154 0.0439711 1.32242 -3.22956 0.325246 0.0665317 0.873274 
136 1 0.308804 0.334188 0.0486257 0.701406 -3.27819 0.419783 0.133917 -0.489803 
533 1 0.303629 0.293512 0.0989059 0.558654 -3.36258 0.052285 -0.204362 -0.0573512 
130 1 0.249411 0.344572 1.00574 3.99848 -3.23787 0.502896 -0.0739299 -0.957433 
135 1 0.362894 0.284469 0.0464577 0.519862 -3.26287 0.162088 0.583544 0.446151 
534 1 0.365695 0.331129 0.0932064 2.28548 -3.2681 0.0307611 -0.522055 0.892168 
530 1 0.250696 0.343446 0.0907038 2.63673 -3.29862 -0.301523 -0.278046 0.577257 
140 1 0.424054 0.32216 0.0498945 1.08192 -3.26547 0.411356 -0.452512 -0.372168 
538 1 0.484512 0.314498 0.0974013 0.56737 -3.32165 0.152613 -0.362084 0.0750666 
577 1 0.434579 0.358217 0.0976644 1.36681 -3.28545 -0.320369 0.68097 0.225403 
144 1 0.492429 0.35422 0.0439598 1.54057 -3.28563 -0.01102 0.0746209 0.96427 
137 1 0.418663 0.276011 1.00136 0.840063 -3.21947 1.12669 0.593178 -0.0608561 
537 1 0.417826 0.279871 0.0986627 0.535941 -3.36957 -0.0267369 -0.0540814 0.00432835 
143 1 0.539075 0.30599 0.0488431 1.05405 -3.34324 0.626878 -0.275289 0.290672 
545 1 0.602364 0.29644 0.100679 1.36914 -3.2831 -0.571516 -0.317123 -0.914308 
148 1 0.610738 0.336415 0.0413246 2.65936 -3.29334 0.563505 -0.23491 0.892657 
542 1 0.551838 0.348285 0.095221 0.712969 -3.26336 -0.439398 -0.653445 0.409499 
147 1 0.660361 0.283787 0.0457355 1.32022 -3.33352 -0.328386 0.335031 0.0382311 
151 1 0.726615 0.324286 0.050293 1.41792 -3.23478 -0.274293 -0.26919 -0.624068 
549 1 0.662284 0.328634 0.0941718 1.52369 -3.33873 0.754151 0.576115 0.134383 
510 1 0.717087 0.283017 0.093105 1.32136 -3.29467 0.222566 -0.170499 0.73646 
553 1 0.735788 0.363285 0.0941309 0.969837 -3.31276 -0.327964 0.452415 0.732211 
116 1 0.776827 0.273587 0.0485945 0.46694 -3.32652 0.20041 -0.0827068 -0.00121151 
120 1 0.844122 0.30537 0.045831 0.463736 -3.32074 -0.0602759 0.179563 -0.220901 
153 1 0.777624 0.315535 -0.00557416 1.37725 -3.38553 0.665115 0.16045 0.203552 
155 1 0.789923 0.356394 0.04548 0.460404 -3.31008 0.662524 0.188766 -0.157425 
157 1 0.849453 0.346828 -0.00470792 0.417822 -3.35125 -0.450714 -0.385195 0.0542396 
514 1 0.788785 0.316532 0.0933812 0.780098 -3.28622 -0.38994 -0.159512 0.483827 
557 1 0.852258 0.349232 0.0945568 0.729307 -3.31065 -0.403805 0.0507995 0.205174 
84 1 0.960518 0.294812 0.0483299 0.842584 -3.30472 -0.480086 -0.227704 -0.0628075 
159 1 0.905685 0.34153 0.0463656 0.297166 -3.3391 0.342657 -0.0230324 0.0917013 
121 1 0.96176 0.335445 0.996189 0.831131 -3.32026 -0.0152968 -0.0499203 0.400439 
518 1 0.900729 0.299806 0.0953416 0.383776 -3.31393 0.0332121 0.000935108 0.204067 
118 1 0.903046 0.295174 -0.00398015 1.6562 -3.25751 -0.379109 0.742153 0.522251 
521 1 0.965491 0.332774 0.101788 0.566317 -3.32394 0.00690295 0.121733 -0.319975 
122 1 0.0253958 0.368282 1.00154 0.83885 -3.29269 0.340989 0.37814 -0.285637 
522 1 0.0259511 0.371283 0.102052 0.566069 -3.29598 0.209202 -0.367495 -0.015706 
163 1 0.0358565 0.410847 0.0506735 0.581278 -3.30442 -0.528356 0.512452 -0.112608 
168 1 0.0971307 0.448316 0.0502639 0.242929 -3.29842 -0.114288 -0.112745 -0.0672672 
565 1 0.0877734 0.405927 0.0999506 0.260535 -3.3255 0.408624 -0.0410437 0.113519 
167 1 0.149594 0.401578 0.0466858 1.12059 -3.27637 -0.816974 -0.248047 0.484109 
172 1 0.206092 0.437963 0.0516054 1.37374 -3.22308 0.107994 -0.761011 -0.44655 
569 1 0.202444 0.392682 0.099874 0.412349 -3.34946 -0.319698 0.119988 0.0348131 
566 1 0.148732 0.442565 0.104433 1.42882 -3.32639 0.135908 -0.380422 -0.33551 
169 1 0.203224 0.394507 -0.000860893 0.42426 -3.27007 -0.167433 -0.0814631 -0.585801 
171 1 0.256154 0.389053 0.0474467 1.41029 -3.26781 0.306102 -0.113072 0.417434 
176 1 0.326488 0.42 0.0472418 0.801558 -3.33634 -0.424282 -0.0838724 0.0950293 
573 1 0.312873 0.375151 0.101971 1.74819 -3.2555 0.465087 0.40623 -0.573605 
570 1 0.27185 0.423011 0.100228 2.58334 -3.29596 -0.315952 0.553979 -0.215934 
175 1 0.373727 0.37105 0.0478658 0.476754 -3.34133 0.125538 -0.0633376 0.0184061 
170 1 0.265707 0.428196 1.00031 0.475563 -3.29812 0.37425 0.0625278 -0.0692605 
179 1 0.441083 0.406242 0.0509115 0.890648 -3.27645 -0.475193 -0.456908 -0.485663 
180 1 0.386409 0.457008 0.0447972 1.27601 -3.29768 0.931257 0.0385552 0.686973 
578 1 0.446347 0.446609 0.0978928 0.364966 -3.33532 -0.123621 0.301477 -0.239729 
574 1 0.380449 0.411268 0.0980992 0.457667 -3.37197 -0.0524683 0.114593 0.00611707 
138 1 0.43626 0.363471 0.998544 0.651921 -3.3019 0.11854 0.290098 -0.0239438 
178 1 0.449297 0.447591 -0.00104997 0.538558 -3.35344 0.0409803 -0.163665 0.075013 
183 1 0.567159 0.38464 0.0515592 3.61905 -3.20278 -0.801733 0.861957 -0.844238 
184 1 0.506061 0.435597 0.0481639 0.955692 -3.31943 0.427325 0.436987 0.227645 
187 1 0.625713 0.42553 0.0522151 0.92305 -3.27815 -0.232892 -0.547259 -0.962816 
581 1 0.493371 0.395355 0.0968638 1.4001 -3.28729 0.841922 -0.108829 -0.0595456 
585 1 0.562859 0.428987 0.0969223 0.486637 -3.30614 -0.141065 -0.110402 -0.39753 
546 1 0.61721 0.380678 0.0980467 0.811311 -3.25125 0.636533 -0.215286 0.15262 
185 1 0.618219 0.38344 1.00045 0.672803 -3.31491 0.114185 0.199427 0.000961357 
152 1 0.677462 0.375914 0.046303 0.842523 -3.35825 -0.362472 -0.524507 0.216888 
150 1 0.735338 0.366457 -0.00513452 0.814896 -3.19686 -0.316308 -0.43526 0.788816 
550 1 0.682885 0.414741 0.0965058 0.596792 -3.29128 0.316493 -0.493292 0.398469 
156 1 0.744257 0.405902 0.0454467 0.872322 -3.3309 0.0667912 0.446688 0.254286 
593 1 0.743406 0.450453 0.10097 1.35773 -3.23825 0.848705 -0.345098 -0.00771613 
193 1 0.75425 0.452497 0.998646 1.38471 -3.3433 -0.48492 -0.567851 -0.1773 
160 1 0.854782 0.391437 0.0427409 0.972466 -3.30718 -0.286968 -0.00353756 0.869248 
195 1 0.80642 0.442758 0.050303 0.426824 -3.28965 -0.252132 -0.543841 -0.061871 
197 1 0.865509 0.431463 0.996489 0.587371 -3.33312 -0.0920451 0.612517 -0.330334 
554 1 0.795981 0.401487 0.0979153 0.974058 -3.31372 0.161162 -0.455545 -0.359893 
597 1 0.860685 0.433933 0.100763 0.626292 -3.30331 0.267463 -0.0766327 -0.420193 
124 1 0.972872 0.374141 0.05348 1.60508 -3.32541 -0.585593 0.314618 -0.392856 
158 1 0.910288 0.381702 0.998571 0.692405 -3.27558 0.851033 0.346323 -0.291097 
199 1 0.919637 0.426137 0.0472417 0.383619 -3.32189 0.00862657 -0.122175 -0.0667898 
561 1 0.970926 0.419499 0.100561 1.18317 -3.30932 0.942143 0.036152 -0.125223 
558 1 0.908415 0.386133 0.0980105 1.77748 -3.281 0.277168 -0.45013 -0.311887 
161 1 0.979357 0.41607 0.999985 0.559834 -3.37068 -0.142113 0.336617 0.105666 
203 1 0.0483205 0.495346 0.0515212 0.639154 -3.35306 -0.16655 0.329433 -0.338879 
605 1 0.103377 0.491728 0.0990144 0.53049 -3.33626 0.0944365 0.00193559 0.339693 
602 1 0.054551 0.537778 0.104418 1.10479 -3.31385 0.142226 0.370091 -0.531273 
208 1 0.112559 0.535672 0.0490908 0.62874 -3.35146 -0.317892 -0.494637 0.248 
562 1 0.0382877 0.455768 0.101714 0.442986 -3.31145 0.0287999 -0.404699 -0.352065 
202 1 0.0550131 0.541162 0.998003 0.484508 -3.31888 -0.0827064 -0.182112 0.24589 
207 1 0.158994 0.483048 0.0513238 0.376532 -3.31217 -0.0932327 0.460056 -0.37665 
212 1 0.222232 0.518475 0.0498934 0.395193 -3.34044 0.0974954 -0.070612 0.0478673 
609 1 0.215802 0.472431 0.0994332 1.25118 -3.23988 0.208228 0.903681 0.486325 
606 1 0.167979 0.528509 0.101783 0.613713 -3.3195 -0.0253194 -0.425694 -0.55214 
209 1 0.220077 0.475469 1.00024 0.736845 -3.30738 -0.932339 0.137912 -0.0962435 
211 1 0.270665 0.468208 0.0521584 1.45571 -3.22949 0.412793 0.220002 -0.498843 
215 1 0.342694 0.507332 0.0448864 1.66161 -3.29762 -0.595252 -0.151248 0.434181 
613 1 0.330348 0.464899 0.0910065 2.73593 -3.29735 0.427288 -0.227863 1.10799 
213 1 0.280891 0.509671 1.00166 1.11428 -3.36024 0.468327 0.604071 -0.000408173 
610 1 0.281284 0.51245 0.0976469 0.446321 -3.36868 -0.0282411 -0.323066 0.230879 
614 1 0.342805 0.547706 0.0983915 1.28703 -3.31001 0.596808 0.180319 -0.0271304 
174 1 0.335052 0.464375 0.997959 0.823731 -3.27022 -0.437119 -0.0934347 0.346757 
219 1 0.45722 0.489621 0.0474367 0.487911 -3.28517 -0.719754 -0.39698 0.011977 
621 1 0.466159 0.528584 0.0975998 1.27098 -3.1888 -0.377114 0.774706 -0.487549 
220 1 0.406052 0.539971 0.0540555 1.33444 -3.31848 0.210723 0.375606 -0.425831 
617 1 0.393702 0.500554 0.100324 1.69941 -3.29725 0.104172 -0.448841 -0.56579 
217 1 0.401621 0.50127 0.000694102 0.84979 -3.26593 -0.448643 -0.471678 -0.0857844 
188 1 0.573218 0.474983 0.0497936 0.40249 -3.30002 -0.113882 -0.168798 0.56439 
582 1 0.511323 0.48172 0.0921363 1.10336 -3.29134 0.343062 -0.584113 0.644045 
223 1 0.519806 0.523201 0.0474428 1.02923 -3.2625 0.856673 0.0667543 0.240982 
586 1 0.576092 0.516184 0.100487 1.6405 -3.34573 0.63435 0.220536 -0.456685 
221 1 0.516157 0.478831 0.0024913 0.847437 -3.29812 -0.263186 0.517534 -0.339897 
191 1 0.694616 0.457638 0.0532501 1.58305 -3.25706 -0.356348 0.0528186 -1.32123 
192 1 0.636545 0.512448 0.0503515 1.82247 -3.30857 0.50351 -0.809519 0.0755693 
231 1 0.705762 0.540927 0.0533653 0.437871 -3.32071 0.180662 0.240477 -0.517614 
629 1 0.646924 0.550979 0.0986155 0.364122 -3.31103 -0.138446 0.160754 0.264333 
589 1 0.634838 0.463117 0.0951243 1.14291 -3.24974 -0.150927 1.00915 0.586434 
590 1 0.701341 0.499606 0.0980665 0.705246 -3.24031 -0.946971 -0.31545 0.331103 
196 1 0.75909 0.490987 0.0513835 0.328417 -3.26321 -0.406442 0.0430841 -0.230462 
194 1 0.817592 0.483095 1.00334 1.25249 -3.19272 -0.339228 -0.12765 -1.1332 
235 1 0.824573 0.523192 0.0516216 0.38817 -3.25188 -0.270952 0.271333 0.0435871 
233 1 0.766688 0.530793 1.00388 0.991152 -3.33414 -0.572764 0.310965 -0.189517 
200 1 0.870089 0.473586 0.0475153 0.554693 -3.27064 0.811665 0.0502218 0.51341 
594 1 0.810892 0.4837 0.101129 0.662413 -3.36426 0.444713 -0.0793399 0.168451 
633 1 0.761218 0.531739 0.101009 0.802408 -3.27248 0.927206 0.469864 0.119891 
637 1 0.879306 0.518276 0.0978711 0.535063 -3.32733 -0.010372 -0.288446 0.547405 
201 1 0.989332 0.505584 0.994727 1.09324 -3.33459 0.499002 0.183753 0.392172 
164 1 0.981971 0.460953 0.0485223 0.430168 -3.36329 0.327687 0.0994171 -0.0366231 
198 1 0.931515 0.470202 0.993796 1.45628 -3.30598 -0.535887 -0.668924 0.227277 
239 1 0.934042 0.509742 0.0510017 0.777573 -3.3296 0.44935 -0.185336 -0.361881 
601 1 0.991136 0.503123 0.104892 0.982274 -3.23201 -0.192905 0.159915 -0.949844 
598 1 0.925737 0.466891 0.0999613 0.302161 -3.33773 0.0372225 0.362431 0.0971209 
243 1 0.0642822 0.583647 0.0470759 1.02649 -3.36866 -0.149859 0.0175756 0.0577322 
642 1 0.0670429 0.625155 0.097806 0.428706 -3.32723 0.239995 0.33918 0.253878 
248 1 0.126048 0.619207 0.0515592 0.396113 -3.3154 -0.227676 0.0634682 -0.510245 
645 1 0.11659 0.577479 0.10207 0.792855 -3.29903 -0.0310641 -0.351061 -0.474021 
245 1 0.126408 0.571916 0.998242 3.02562 -3.27248 -0.307672 1.0263 0.228076 
247 1 0.177395 0.568472 0.0503908 0.43626 -3.2923 -0.0452299 0.0579543 -0.126266 
649 1 0.235924 0.562254 0.0970561 0.699577 -3.29355 -0.354832 0.0217513 0.666613 
251 1 0.240658 0.605478 0.0503928 0.514355 -3.31086 0.451769 -0.333483 -0.509395 
646 1 0.180941 0.610243 0.0963211 0.817754 -3.2574 0.435032 0.166413 0.48217 
249 1 0.185329 0.61383 1.00304 1.13904 -3.36125 -0.0178798 -0.37462 -0.485719 
216 1 0.285965 0.555458 0.0507437 0.899356 -3.30017 0.620072 -0.0762786 -0.669579 
255 1 0.352513 0.589366 0.0506211 0.947054 -3.38508 0.452321 0.0671312 0.137394 
256 1 0.309216 0.640374 0.0506106 0.510904 -3.31336 -0.283175 -0.63592 0.0872378 
653 1 0.2997 0.597776 0.103424 0.948107 -3.28571 0.0241836 -0.339814 -0.604671 
657 1 0.366434 0.629685 0.100503 0.361952 -3.29984 -0.120291 -0.277649 0.201059 
214 1 0.350727 0.550116 0.00155838 0.841565 -3.31171 -0.387753 -0.548299 -0.136429 
253 1 0.301231 0.598775 -0.00128351 0.597336 -3.36177 -0.208835 -0.245066 0.519137 
254 1 0.368764 0.631539 1.00245 0.46187 -3.26102 -0.141022 -0.13192 0.0414303 
259 1 0.423875 0.62425 0.0510566 0.56517 -3.34853 0.420649 -0.0645473 -0.409725 
224 1 0.479399 0.571167 0.0521666 1.39002 -3.33181 -0.463221 0.708594 -0.0717315 
618 1 0.420972 0.583146 0.0959092 1.9191 -3.35757 -0.468645 -0.209067 0.442012 
622 1 0.484498 0.619534 0.0970339 1.54448 -3.30542 -0.174015 -0.652135 0.057712 
227 1 0.592554 0.558288 0.0499693 0.37109 -3.33458 -0.292631 0.375376 0.0393757 
228 1 0.547323 0.608992 0.0494429 0.838101 -3.27295 -0.490986 -0.396794 -0.065381 
625 1 0.535495 0.569327 0.101315 1.62322 -3.24112 -0.474435 -0.546483 -0.818287 
626 1 0.596777 0.600391 0.100823 0.454196 -3.27881 1.03391 0.292201 -0.0118055 
229 1 0.650686 0.552097 -0.000152395 0.508761 -3.306 -0.21787 -0.126285 0.175411 
232 1 0.659851 0.595358 0.0515449 0.895052 -3.31783 -0.859149 -0.574989 -0.0755047 
230 1 0.716332 0.582059 1.00476 0.779308 -3.31538 0.044617 -0.00294828 -0.240181 
271 1 0.724965 0.622742 0.0547133 1.47128 -3.25561 0.475511 0.771107 -0.392474 
269 1 0.663896 0.633491 0.000448171 0.696003 -3.30182 0.677881 -0.220573 0.0431283 
630 1 0.713166 0.586527 0.103866 0.841803 -3.32769 0.207239 -0.372815 0.0402279 
669 1 0.668021 0.63439 0.100644 0.639419 -3.30914 -0.722596 0.348377 0.181217 
236 1 0.774723 0.574808 0.0549513 0.778467 -3.27612 -0.878281 -0.648924 -0.122822 
234 1 0.828276 0.565379 1.00214 0.638078 -3.31626 0.108579 0.427522 -0.116425 
275 1 0.828896 0.609473 0.0512072 2.17146 -3.24824 1.2551 0.522184 0.0205696 
634 1 0.83232 0.56571 0.0998481 1.21272 -3.28234 -0.473396 -0.0543227 -0.183122 
673 1 0.781329 0.620305 0.105718 1.70251 -3.30371 -0.555926 -0.116483 -0.404435 
204 1 1.00332 0.544097 0.050372 1.2371 -3.35832 -0.134446 0.0693649 -0.26692 
641 1 0.00483846 0.589497 0.098176 0.44428 -3.30998 0.14091 -0.0258856 0.379252 
240 1 0.887747 0.558176 0.0467234 1.06949 -3.27651 -0.182933 0.5061 0.613234 
279 1 0.951093 0.596328 0.0504403 0.502756 -3.29304 -0.676325 -0.187177 0.165129 
638 1 0.945528 0.552617 0.0952848 1.9519 -3.29172 -0.508819 0.146503 0.591618 
677 1 0.885882 0.606407 0.103371 1.86964 -3.31103 0.583446 -0.144426 -0.387119 
244 1 0.00790119 0.633794 0.0537569 1.13323 -3.20474 0.54638 -0.0775528 -0.104534 
283 1 0.0740368 0.670874 0.0509455 0.645998 -3.29344 1.08871 0.15851 0.33946 
284 1 0.0280038 0.721126 0.0525131 0.44722 -3.3453 0.219462 0.077555 0.0559898 
681 1 0.0200889 0.675865 0.0967345 1.45989 -3.27296 -0.194752 0.54251 0.65791 
682 1 0.0836194 0.714757 0.102415 0.902153 -3.39825 0.366574 -0.269566 -0.24647 
685 1 0.135398 0.662754 0.0994412 0.323497 -3.34551 -0.615651 -0.127767 -0.262332 
281 1 0.0193482 0.676944 1.00733 1.2923 -3.18638 -0.207511 0.416613 -0.685743 
285 1 0.0861383 0.711873 -0.00184931 0.681708 -3.3537 0.221405 -0.245337 0.436543 
252 1 0.193779 0.652419 0.0521555 0.46642 -3.30133 0.0114505 0.404504 -0.214381 
287 1 0.147322 0.703747 0.0496035 0.489527 -3.2805 -1.13788 -0.453473 0.242166 
689 1 0.201751 0.695164 0.0993263 0.161037 -3.29286 -0.0251806 -0.121047 -0.0979445 
650 1 0.252197 0.642367 0.0969357 1.22801 -3.33067 -0.305246 0.834362 0.527215 
289 1 0.203152 0.694568 0.00343485 0.891115 -3.27275 0.340096 -0.325067 -0.663579 
246 1 0.136031 0.661243 0.00175808 0.197858 -3.34833 -0.0459284 0.126178 -0.083281 
291 1 0.262633 0.688352 0.0473831 0.858413 -3.33042 -0.399363 -0.262644 0.393208 
295 1 0.326198 0.721144 0.0497263 0.525374 -3.36422 0.361746 0.401514 0.0883418 
260 1 0.374332 0.670416 0.0571538 2.50526 -3.27245 0.308247 0.745003 -0.751129 
297 1 0.378633 0.714484 -0.00318162 1.9473 -3.30963 0.387686 0.558322 0.482376 
654 1 0.314688 0.68049 0.102254 0.685537 -3.24717 0.139538 -0.376418 -0.64244 
293 1 0.321414 0.675871 0.00186767 1.7934 -3.24505 0.0266043 0.630084 -0.30279 
264 1 0.442043 0.711352 0.0460805 2.09605 -3.28738 -0.379943 -0.518976 0.616188 
263 1 0.49466 0.659462 0.0470948 0.745002 -3.31246 -0.548034 -0.329338 0.419979 
658 1 0.381815 0.714114 0.100195 0.486197 -3.33008 0.602381 0.138356 -0.303272 
661 1 0.430643 0.663959 0.102658 0.849736 -3.29308 0.318758 0.529348 -0.181511 
662 1 0.49726 0.701038 0.0963708 1.13545 -3.34316 0.267909 -0.50735 0.470985 
267 1 0.6079 0.644629 0.0540345 1.3371 -3.29658 0.662875 -0.0943328 -0.604468 
268 1 0.55914 0.693863 0.0516798 0.625192 -3.33846 0.438082 -0.0559159 -0.0689489 
266 1 0.621988 0.679914 1.00014 2.00761 -3.26829 -0.559406 0.560691 0.356457 
666 1 0.61493 0.685657 0.0994721 0.266823 -3.38222 0.301136 0.253437 0.281664 
665 1 0.551018 0.647548 0.0970453 1.11848 -3.24811 -0.269387 0.731807 0.795272 
265 1 0.551391 0.650565 -2.61107e-05 0.66504 -3.31489 0.158821 0.118536 0.0336741 
272 1 0.680421 0.676992 0.0490693 1.2535 -3.31719 -0.59198 -0.385419 0.579897 
270 1 0.730698 0.667904 -0.00130555 0.679915 -3.27843 0.0652567 -0.111878 0.262688 
309 1 0.684894 0.716487 1.00146 0.714914 -3.25635 0.267803 0.457494 -0.25269 
311 1 0.740661 0.713281 0.0513464 0.516487 -3.25028 -0.499232 0.271171 -0.285769 
670 1 0.730427 0.668939 0.101379 0.511425 -3.35033 0.181014 0.345111 -0.0675653 
709 1 0.683343 0.721889 0.103126 0.791356 -3.30346 -0.341515 -0.0647244 -0.841201 
276 1 0.786996 0.662372 0.0493005 0.677773 -3.31198 -0.43661 -0.0775374 -0.0119898 
315 1 0.848224 0.700628 0.0502293 0.869307 -3.33061 0.379046 -0.252845 -0.144953 
674 1 0.839743 0.658402 0.0960113 2.5037 -3.2037 -0.423556 -0.0831515 1.08003 
713 1 0.787743 0.711645 0.0997166 1.87136 -3.25415 0.108339 -0.539804 0.650342 
278 1 0.955306 0.640282 1.00787 1.41681 -3.29456 -0.532291 0.111703 -0.806555 
280 1 0.897403 0.647604 0.0585133 1.87079 -3.24583 0.452893 -0.104008 -1.11072 
319 1 0.962681 0.686584 0.0511238 0.674961 -3.29364 -0.302828 -0.135691 0.692052 
678 1 0.953733 0.642905 0.103678 0.55979 -3.28478 -0.195799 -0.215986 -0.0284531 