ITEM: TIMESTEP
19250
ITEM: NUMBER OF ATOMS
4000
ITEM: BOX BOUNDS pp pp pp
3.8375020217494771e+00 3.6662497978249952e+01
-3.9716905865245220e+00 4.4471690586523266e+01
-6.2989697620904894e-01 4.1129896976209629e+01
ITEM: ATOMS id type xs ys zs c_csym c_peratom fx fy fz 
7 1 0.0926445 0.0530161 0.0469856 1.17237 -3.25953 0.187392 0.790587 0.488208 
3 1 0.0255374 0.0207232 0.0516505 0.680295 -3.22092 0.0613013 -0.0943689 -0.41003 
2 1 0.0318414 0.0650992 -0.000662678 0.542976 -3.31183 0.155971 -0.113633 0.326654 
372 1 0.144915 0.00561907 0.0518583 0.490737 -3.25302 -0.361424 -0.0424705 -0.297385 
766 1 0.0874021 0.0136054 0.102777 1.00587 -3.30612 -0.241598 -0.244364 -0.450966 
11 1 0.209834 0.0370808 0.0518642 0.760219 -3.30995 0.262012 0.740782 -0.237343 
12 1 0.156238 0.0914151 0.0464162 0.984324 -3.34083 0.0980539 -0.153272 0.536176 
16 1 0.275904 0.0742212 0.0488443 0.642133 -3.28533 -0.86532 -0.46585 0.360177 
409 1 0.147201 0.0493462 0.0985996 1.07613 -3.30998 0.354318 0.122497 0.0351765 
410 1 0.218283 0.0765699 0.104543 3.06742 -3.3 -0.0449014 0.0445799 -0.725221 
413 1 0.269054 0.0269256 0.0992645 1.02192 -3.34189 0.171121 0.38248 0.121863 
15 1 0.324875 0.0238372 0.0456795 1.17986 -3.28895 -0.364776 -0.135075 0.560191 
20 1 0.389042 0.0556259 0.0518069 1.19425 -3.30393 0.0723505 0.763506 -0.181105 
414 1 0.328109 0.066477 0.103378 1.05915 -3.29569 0.0270967 0.0604727 -0.701203 
417 1 0.379443 0.0204734 0.101934 1.96752 -3.25274 -0.0613725 -0.823271 -0.659979 
19 1 0.441502 0.0112686 0.0530381 1.21298 -3.29092 0.0775207 -0.437395 -0.590579 
24 1 0.503953 0.0475784 0.050114 0.721243 -3.27051 -0.224826 -0.460212 -0.286499 
63 1 0.566853 0.0809379 0.0536969 1.0378 -3.24013 0.0628036 -0.158507 -0.781858 
461 1 0.514299 0.0873746 0.102591 0.963086 -3.26264 -0.482387 0.132426 -0.43464 
418 1 0.452366 0.0495596 0.100769 1.67022 -3.23561 -0.666486 0.526247 -0.299005 
421 1 0.499114 0.00098654 0.099053 0.434886 -3.31056 0.189387 -0.279496 0.065356 
422 1 0.561111 0.0365783 0.0995293 0.37131 -3.32847 0.0941366 0.150371 -0.16455 
28 1 0.618098 0.0289668 0.0476779 0.755899 -3.32273 0.15505 0.409868 -0.0451084 
67 1 0.679365 0.0687471 0.0454267 0.619771 -3.31107 -0.0180107 -0.499564 0.489782 
465 1 0.620191 0.076766 0.100318 0.738402 -3.27263 0.0221342 -0.650166 0.257821 
32 1 0.725636 0.019544 0.0482349 1.31987 -3.29424 0.218263 -0.299901 -0.0318493 
36 1 0.792714 0.0507049 0.0461641 0.953331 -3.32429 0.199811 0.261828 0.276913 
34 1 0.857364 0.043545 -0.00157671 1.09833 -3.28936 -0.707462 0.133476 0.202908 
35 1 0.844342 0.00100248 0.0476072 0.321775 -3.30906 0.236833 0.261056 0.382086 
473 1 0.7977 0.0996014 0.0987828 1.94932 -3.21365 0.886806 -0.863989 -0.506727 
469 1 0.739925 0.0585975 0.100035 1.06808 -3.31232 -0.242584 0.0169308 -0.500507 
430 1 0.788898 0.00801076 0.0995187 0.947058 -3.33694 -0.340467 0.074681 -0.326315 
33 1 0.789113 0.0112481 -0.00127024 0.959809 -3.27793 -0.57788 -0.108031 0.159192 
75 1 0.85596 0.0876658 0.0480184 0.741483 -3.35555 0.490901 -0.224102 0.404242 
4 1 0.9729 0.0732765 0.0484693 0.867263 -3.27381 0.339626 -0.201503 0.193995 
40 1 0.912708 0.0358914 0.0501639 0.452774 -3.33778 -0.594261 0.000790972 0.212655 
401 1 0.969647 0.0312874 0.100721 0.592334 -3.23381 -0.74351 -0.756484 -0.241038 
38 1 0.96891 0.0259951 0.00284809 1.36485 -3.27804 -0.0858916 0.685903 -0.367562 
8 1 0.0430382 0.106113 0.0501836 0.573177 -3.35465 0.346211 -0.0248822 -0.144745 
47 1 0.10827 0.14436 0.0492408 0.963772 -3.3111 -0.209895 -0.694368 -0.330851 
406 1 0.101878 0.102345 0.0986761 1.18048 -3.28547 -0.825766 -0.609663 -0.291409 
445 1 0.0475968 0.151177 0.0988215 0.864145 -3.29897 0.266569 0.363669 -0.185249 
52 1 0.175372 0.175896 0.0487373 0.389787 -3.27801 -0.14478 -0.235519 -0.295919 
51 1 0.223186 0.125039 0.0458545 0.851937 -3.32496 -0.0518511 -0.00504176 0.352548 
449 1 0.167638 0.132544 0.0983292 0.366407 -3.26844 0.496058 -0.0111418 -0.287882 
450 1 0.234039 0.165929 0.0986062 0.542207 -3.29519 -0.440406 0.173078 -0.0956378 
453 1 0.276604 0.116173 0.100475 0.785292 -3.28392 0.516614 -0.0968506 -0.42411 
55 1 0.334689 0.107912 0.0497172 0.401491 -3.24992 0.721762 0.141987 0.0997657 
56 1 0.292286 0.155692 0.049976 1.14905 -3.28858 -0.168667 0.437388 -0.00622668 
60 1 0.398113 0.144417 0.0502208 0.303122 -3.34721 -0.132467 -0.00233753 -0.0997633 
454 1 0.343791 0.151408 0.10237 0.529391 -3.31822 -0.00825379 -0.0921225 -0.210106 
54 1 0.339661 0.153318 -0.00291564 1.18459 -3.27731 0.619073 0.00179093 0.158023 
59 1 0.452853 0.0930175 0.0511836 0.583638 -3.31645 -0.539891 0.0277878 0.183286 
458 1 0.458864 0.13827 0.0971055 0.626768 -3.34082 -0.083751 -0.0114311 0.117907 
64 1 0.516763 0.127034 0.0511744 1.30481 -3.29429 -0.00370506 0.643438 -0.144438 
462 1 0.576693 0.124468 0.0992472 1.24435 -3.27443 -0.218129 -0.023062 -0.0545908 
501 1 0.518157 0.179234 0.0973902 2.10379 -3.27042 0.344588 -0.622707 -0.145585 
99 1 0.461003 0.181821 0.0516066 0.354875 -3.31831 0.203788 0.213906 -0.199519 
62 1 0.570531 0.122235 -0.00183022 0.50072 -3.30142 -0.0895298 0.16667 0.0204972 
103 1 0.579743 0.164465 0.0508059 0.972744 -3.3722 -0.0586739 0.197408 -0.260173 
68 1 0.629227 0.115162 0.0441693 1.41835 -3.14435 -0.662626 0.120738 0.936191 
72 1 0.68881 0.150236 0.0502496 0.838475 -3.27263 0.506438 0.335271 0.153847 
505 1 0.635144 0.162019 0.102174 1.38757 -3.30725 0.436221 -0.172146 -0.209263 
66 1 0.635352 0.154117 -0.00405477 1.75938 -3.23634 -0.265954 0.886217 0.249308 
466 1 0.681281 0.108994 0.0968303 0.995921 -3.2897 0.372598 0.116969 0.275601 
69 1 0.682257 0.110446 -0.00087311 1.01041 -3.18629 1.14284 -0.246603 -0.779588 
71 1 0.743142 0.103972 0.0455017 0.959778 -3.2822 -0.0165936 -0.406304 0.653793 
76 1 0.81216 0.137387 0.0506366 0.940294 -3.26645 -0.466374 -0.166503 -0.586064 
470 1 0.74627 0.141411 0.0992868 1.57754 -3.29568 0.304909 1.0114 -0.249627 
70 1 0.751195 0.143393 0.00155278 0.563401 -3.35244 0.0162015 0.278132 -0.317257 
113 1 0.817427 0.181401 0.0011083 0.863791 -3.30471 -0.291348 -0.528506 -0.201798 
80 1 0.877504 0.169202 0.0436862 1.31589 -3.29095 0.200729 0.469438 0.419568 
74 1 0.870647 0.127184 -0.00271897 1.05427 -3.27654 -0.528442 0.705477 0.671253 
43 1 0.993421 0.156916 0.046821 0.474652 -3.33144 0.13701 0.277108 0.229837 
79 1 0.9248 0.121916 0.0480968 0.372068 -3.29025 -0.161838 -0.255543 0.198593 
402 1 0.987026 0.116649 0.0977231 1.10569 -3.20325 -0.541725 -0.513791 -0.312259 
78 1 0.937584 0.165069 -0.00112513 0.624843 -3.3377 -0.183191 -0.0801738 -0.0884072 
446 1 0.11807 0.180618 0.0968341 0.860166 -3.24102 -0.205136 0.335509 0.148142 
48 1 0.0608758 0.19229 0.0444332 0.899207 -3.33632 -0.453061 -0.0387131 0.327175 
83 1 0.00442334 0.241032 0.0491542 1.07449 -3.25262 1.039 0.00150835 -0.00453158 
87 1 0.125272 0.225425 0.0488222 0.276503 -3.31508 0.111826 0.0699834 -0.530379 
486 1 0.130657 0.264842 0.099601 0.205294 -3.28828 0.326098 0.0660103 -0.0699066 
91 1 0.241568 0.204643 0.0480194 1.42626 -3.27322 0.116558 0.380706 0.179018 
92 1 0.191835 0.258716 0.0468429 0.808903 -3.32684 -0.351859 -0.239254 -0.0052244 
489 1 0.178791 0.216822 0.099625 0.550198 -3.31946 0.435396 0.0789802 0.0327393 
490 1 0.24324 0.250855 0.0998441 0.531012 -3.34775 0.360679 -0.0667243 -0.0866748 
95 1 0.352688 0.196719 0.0494176 0.647445 -3.3006 -0.207199 -0.485163 0.238532 
96 1 0.299907 0.242706 0.0507369 0.985826 -3.32793 0.0158703 0.237898 -0.178481 
100 1 0.412041 0.234017 0.0518394 0.484187 -3.27446 0.468472 -0.14408 0.0672311 
497 1 0.406785 0.191075 0.101364 0.508045 -3.30516 0.15957 -0.326673 -0.400334 
493 1 0.298994 0.199664 0.102645 1.13408 -3.28933 -0.269986 0.469136 -0.558348 
494 1 0.356847 0.240842 0.101415 0.62387 -3.28813 0.0352479 -0.351813 -0.0563787 
139 1 0.475351 0.270125 0.0495869 0.39798 -3.30757 0.141079 -0.309263 0.311427 
498 1 0.470221 0.228296 0.100438 0.505014 -3.28235 -0.229034 -0.157907 -0.449957 
104 1 0.532329 0.219801 0.0505524 0.842733 -3.26594 -1.02375 -0.359488 -0.163804 
541 1 0.536349 0.259302 0.100288 0.626042 -3.20743 -0.4373 0.266273 -0.310479 
108 1 0.595841 0.25329 0.0478012 0.691687 -3.23934 -0.174681 0.271665 0.0714636 
107 1 0.646162 0.198458 0.0482621 1.3567 -3.26791 -0.321821 0.355954 0.312496 
509 1 0.701923 0.195672 0.099762 0.543429 -3.36848 0.0999984 -0.0464965 0.175516 
112 1 0.707529 0.236755 0.0503447 0.557357 -3.33414 -0.0547098 0.0668192 -0.0450819 
502 1 0.588116 0.210899 0.0963337 0.79803 -3.26386 0.0871773 -0.407714 0.254969 
115 1 0.826222 0.219584 0.049472 0.653242 -3.28887 0.392808 0.172947 -0.298547 
111 1 0.757321 0.186402 0.0489928 0.37602 -3.34459 -0.116345 -0.129386 0.0549468 
513 1 0.772331 0.230083 0.0941482 1.52506 -3.25813 -1.00586 -0.490176 0.724098 
116 1 0.777441 0.269561 0.0482643 0.378296 -3.3095 -0.10008 0.27653 0.100611 
517 1 0.8357 0.262474 0.0977097 0.178122 -3.29326 0.254356 0.11486 0.00338641 
44 1 0.94261 0.207546 0.0486539 0.495552 -3.31328 -0.267754 -0.701542 0.00920258 
119 1 0.89052 0.257119 0.045125 1.0543 -3.33045 -0.158477 -0.236634 0.166876 
481 1 0.948812 0.250168 0.0958128 0.975208 -3.28895 0.171357 0.0172066 0.432202 
442 1 0.999451 0.201571 0.100654 1.31811 -3.36174 -0.105693 -0.510846 -0.430648 
478 1 0.88876 0.213225 0.0981897 0.989367 -3.32867 -0.549458 -0.22863 -0.507384 
88 1 0.0725749 0.272972 0.0484763 0.357371 -3.28048 0.29887 -0.238382 -0.418329 
123 1 0.0283085 0.322431 0.0497642 0.785597 -3.30443 -0.269056 0.182387 0.0157264 
482 1 0.0220892 0.279461 0.0971096 1.18265 -3.23907 -0.990875 -0.107969 0.276822 
128 1 0.0870734 0.363394 0.0440413 2.62184 -3.31646 -0.299462 -0.287767 0.967681 
127 1 0.136609 0.306187 0.0496818 0.904216 -3.27613 0.0384048 0.279549 -0.0398158 
526 1 0.14595 0.35148 0.101608 0.364302 -3.31218 -0.588657 -0.00719991 -0.180046 
132 1 0.196921 0.342699 0.0528225 1.25026 -3.24149 0.212054 0.286723 -0.767035 
131 1 0.253186 0.292108 0.0471277 1.07411 -3.27097 -0.0314132 0.206609 -0.0230756 
529 1 0.193113 0.30011 0.100331 0.333798 -3.25237 -0.131725 -0.214761 -0.356102 
136 1 0.31075 0.3289 0.0503621 0.918612 -3.28663 0.849837 0.178461 -0.0491218 
135 1 0.362068 0.280127 0.0491418 0.50126 -3.29654 -0.00510645 0.32729 0.299513 
133 1 0.31585 0.286942 -0.00331306 2.09454 -3.29342 -0.553143 0.0786133 0.1845 
140 1 0.427868 0.316005 0.0507303 0.629473 -3.33149 -0.524829 0.535061 -0.198906 
137 1 0.417551 0.278288 9.1049e-05 1.69344 -3.27094 0.304499 -0.320962 0.0289795 
134 1 0.371972 0.326054 -0.00224905 0.762625 -3.21674 -0.742602 -0.477609 0.546321 
144 1 0.492221 0.356585 0.0499076 0.944754 -3.33137 -0.334836 -0.410381 -0.276754 
141 1 0.484253 0.313825 0.00152435 0.724558 -3.2732 0.0964347 -0.694851 0.130383 
143 1 0.542482 0.303495 0.0502664 0.574982 -3.28438 -0.377546 0.0940841 -0.125211 
542 1 0.545924 0.344527 0.0980249 0.794406 -3.33475 0.364458 0.092435 0.581104 
142 1 0.5515 0.345372 0.00218413 0.81524 -3.23468 -0.233444 0.508795 -0.172574 
148 1 0.605212 0.340863 0.051132 0.895032 -3.29132 0.632318 -0.254546 -0.0176523 
147 1 0.655587 0.289591 0.0476115 0.612675 -3.32004 0.190491 0.000121357 0.189076 
545 1 0.593618 0.2938 0.0963141 1.39472 -3.26221 1.15677 0.691336 0.564918 
549 1 0.665973 0.328012 0.0965886 0.392058 -3.36183 -0.151333 0.165862 0.0939904 
145 1 0.600854 0.30342 -0.00137107 3.16446 -3.21334 -0.61113 -1.40096 0.0650875 
146 1 0.665458 0.330512 -0.000669257 0.202679 -3.21579 0.354331 0.488597 0.432063 
151 1 0.725498 0.319141 0.0503657 0.468339 -3.34568 -0.102941 0.152555 -0.128151 
120 1 0.843393 0.303786 0.0513074 0.781569 -3.32745 -0.167373 0.206469 -0.469119 
155 1 0.787791 0.354114 0.0507255 0.736504 -3.3046 0.213584 0.0220275 -0.309038 
514 1 0.785867 0.310485 0.0992448 0.447841 -3.32764 -0.172469 0.213773 -0.147182 
553 1 0.734131 0.36165 0.100246 0.481146 -3.29276 -0.366061 0.0688069 -0.243457 
153 1 0.783025 0.311961 -0.00054855 0.339789 -3.26968 -0.589578 -0.128777 0.070353 
84 1 0.956357 0.290043 0.0485179 0.652147 -3.28459 0.479109 0.0250516 -0.206594 
159 1 0.910004 0.336239 0.0504695 0.510019 -3.3238 -0.0275259 0.584859 -0.426062 
518 1 0.902106 0.298123 0.100214 0.713683 -3.27397 -0.124737 -0.110926 0.064983 
521 1 0.970176 0.327153 0.0991205 1.06783 -3.29895 -0.142151 0.191687 0.270419 
163 1 0.0332514 0.412856 0.0485944 1.47859 -3.28 0.105772 -0.225789 0.193607 
168 1 0.101593 0.443434 0.0513517 0.45784 -3.31953 0.142914 0.34196 -0.0792329 
165 1 0.0939729 0.404889 0.000160443 0.356038 -3.28072 -0.0807174 -0.116672 0.0183435 
522 1 0.0296532 0.363952 0.104034 1.61806 -3.28876 0.809261 0.428262 -0.330078 
565 1 0.0953462 0.402737 0.0993739 0.517237 -3.34156 -0.629512 -0.558829 0.10864 
167 1 0.154247 0.395585 0.0507699 0.491303 -3.24235 -0.665285 -0.397739 0.062561 
172 1 0.215219 0.429318 0.0547419 0.646967 -3.28793 0.503286 0.225025 -0.364935 
166 1 0.15959 0.439676 0.000414905 0.796741 -3.26793 -0.214942 -0.0677085 0.453936 
171 1 0.264762 0.377612 0.05215 0.582072 -3.33998 -0.122744 0.499947 -0.413326 
170 1 0.275861 0.422313 0.00346734 0.335895 -3.3282 -0.0105626 -0.423603 0.210735 
569 1 0.207128 0.387966 0.100782 0.309619 -3.29106 0.0660116 -0.105003 0.274844 
566 1 0.156316 0.436757 0.100756 0.306112 -3.28183 0.211508 0.524572 0.139814 
176 1 0.332379 0.414593 0.0529727 0.341446 -3.2667 -0.191981 0.241312 -0.341625 
175 1 0.37503 0.366534 0.0543511 0.935338 -3.33689 0.634449 -0.28777 -0.435649 
180 1 0.39843 0.454071 0.0538781 0.543149 -3.3557 0.0647688 -0.0747607 -0.242752 
173 1 0.325776 0.374516 0.00228151 0.399351 -3.31354 -0.106513 0.0394003 -0.0888437 
179 1 0.442481 0.403398 0.0520388 0.355434 -3.31064 -0.0969122 -0.329157 -0.13479 
183 1 0.560266 0.387213 0.0528028 1.14539 -3.31071 0.201343 0.501979 -0.550158 
184 1 0.505579 0.437906 0.0483732 0.93698 -3.2392 0.343168 0.109026 0.390494 
181 1 0.502141 0.396398 -0.000903729 0.700755 -3.34128 -0.162374 -0.0234625 0.345586 
185 1 0.61386 0.382631 -0.00228063 0.690382 -3.34262 -0.0444196 0.0999394 0.251321 
187 1 0.626047 0.426632 0.0478947 0.948073 -3.30041 -0.495819 -0.568811 -0.0549561 
152 1 0.672755 0.37648 0.0462193 1.65464 -3.32852 -0.130038 -0.620136 0.481135 
550 1 0.684628 0.414067 0.0994107 0.357246 -3.30939 -0.291247 -0.372824 -0.131497 
189 1 0.682506 0.415261 0.00059339 0.268319 -3.30983 0.141252 0.132593 -0.239896 
546 1 0.619897 0.379162 0.100781 0.716058 -3.32506 -0.20947 -0.0944648 -0.276805 
156 1 0.74291 0.405481 0.0491039 0.566848 -3.30089 0.147019 -0.320516 0.31756 
195 1 0.814236 0.44006 0.0521241 1.58117 -3.23565 -0.745573 -0.583829 -0.0311909 
154 1 0.805132 0.392976 -0.00467388 3.22362 -3.30742 -0.320233 0.5807 0.739827 
593 1 0.747694 0.445285 0.101553 1.25622 -3.294 0.424639 0.547889 -0.417662 
554 1 0.797214 0.395635 0.0991183 0.593698 -3.3043 0.238267 0.492671 0.157566 
160 1 0.85523 0.386087 0.0533289 1.4435 -3.30321 0.503926 0.58804 -0.986311 
197 1 0.868172 0.430466 0.000952076 0.41678 -3.33908 -0.170925 -0.197691 -0.215105 
124 1 0.980918 0.370168 0.0530278 2.50772 -3.2964 -0.621355 0.0990588 -0.489153 
199 1 0.926656 0.420268 0.0481306 1.13114 -3.32791 -0.40155 -0.0256119 0.193488 
597 1 0.865348 0.430715 0.100049 0.348851 -3.2864 0.184482 -0.10312 -0.302815 
558 1 0.918339 0.37894 0.098545 0.536233 -3.33257 -0.102433 0.0734437 0.154586 
562 1 0.0437755 0.452492 0.102997 0.482304 -3.37248 -0.115861 0.00343476 -0.329821 
203 1 0.0534246 0.492902 0.050634 0.96359 -3.33796 -0.18891 0.308224 0.26183 
208 1 0.115769 0.530523 0.0506013 0.29927 -3.33461 0.175557 -0.17567 -0.095406 
605 1 0.107233 0.489269 0.102044 0.384363 -3.33164 -0.000307514 -0.235401 -0.269404 
205 1 0.106529 0.487748 0.000746037 0.412055 -3.33864 0.544434 0.184637 0.0901925 
202 1 0.0598142 0.538007 0.00124777 0.213176 -3.25963 0.725681 0.336074 -0.0458654 
207 1 0.169791 0.478519 0.0486465 0.882771 -3.37486 -0.394229 0.40458 0.448498 
212 1 0.236869 0.515746 0.0525591 0.613397 -3.3052 -0.497397 -0.527623 -0.127564 
209 1 0.230723 0.468733 0.00715238 2.20113 -3.28601 -0.307934 0.655969 -0.413465 
211 1 0.287472 0.462856 0.0538476 0.814196 -3.27261 -0.726819 0.306705 -0.030712 
206 1 0.179347 0.52313 0.00160001 0.561727 -3.33413 -0.548082 -0.519594 -0.0295563 
215 1 0.34971 0.502679 0.0524394 0.477452 -3.21661 -0.222401 -0.621329 0.219279 
220 1 0.411925 0.533967 0.0506601 0.525962 -3.2923 0.59319 0.653496 0.151868 
617 1 0.408966 0.49221 0.102866 0.894065 -3.32013 -0.237481 0.547849 -0.279722 
614 1 0.355875 0.546573 0.102172 1.15033 -3.29862 -0.184958 -0.772903 0.0445877 
174 1 0.340143 0.461088 0.00548639 0.499571 -3.30486 -0.0754328 -0.562337 -0.456353 
213 1 0.292306 0.508466 0.00279974 0.318771 -3.2833 -0.512787 -0.129504 -0.049568 
214 1 0.357023 0.544559 -0.00124635 0.622178 -3.24474 -0.391184 -0.016592 0.108785 
219 1 0.465863 0.489798 0.0494012 1.02994 -3.33899 -0.279748 -0.396452 0.161055 
621 1 0.47287 0.527413 0.102135 0.530939 -3.32916 -0.332604 0.416258 -0.260099 
582 1 0.518606 0.479841 0.103064 0.583913 -3.29251 0.147955 -0.325667 -0.368771 
223 1 0.527567 0.525189 0.0450606 1.44066 -3.25063 0.499564 -0.405512 0.413162 
221 1 0.520671 0.482663 -0.00217053 0.470566 -3.32023 0.148726 0.00981623 -0.117064 
191 1 0.692652 0.457504 0.0480027 0.54107 -3.33616 0.157476 -0.0100543 -0.145913 
188 1 0.571466 0.472349 0.0516767 1.38464 -3.33125 0.159432 0.332392 -0.315473 
586 1 0.58198 0.515875 0.0966794 0.812059 -3.28901 0.311885 -0.259077 0.150025 
192 1 0.639177 0.507577 0.0481734 0.457551 -3.26304 -0.166413 -0.360211 0.165883 
231 1 0.704594 0.539824 0.0451266 1.24073 -3.17522 0.590998 0.692146 0.99817 
589 1 0.633334 0.463459 0.0965162 0.471365 -3.32149 -0.303662 -0.00494196 0.445915 
590 1 0.69801 0.495266 0.0966447 0.530107 -3.26919 0.102541 0.178834 0.045194 
186 1 0.633476 0.467609 -0.00304998 0.930205 -3.36232 -0.265531 -0.472084 0.307329 
225 1 0.590881 0.517173 -0.00380136 1.204 -3.29833 -0.726868 -0.512138 0.132678 
190 1 0.697307 0.504434 0.00135896 6.81237 -3.1962 0.105823 -1.10054 -0.569909 
196 1 0.759962 0.490509 0.0446788 1.73767 -3.29325 -0.259747 -0.297941 0.274968 
194 1 0.81787 0.480282 -0.00133018 0.956275 -3.29558 0.193921 0.196824 0.068379 
235 1 0.825312 0.524568 0.0530485 0.790362 -3.28646 0.226946 -0.232484 -0.326771 
594 1 0.811622 0.483158 0.0967652 1.03156 -3.30782 0.0865401 -0.165243 0.0708524 
633 1 0.759368 0.529506 0.0944533 1.80793 -3.3137 0.344386 0.741104 0.346175 
200 1 0.873723 0.474545 0.0506752 0.376451 -3.30267 0.50363 0.342468 0.262899 
164 1 0.983834 0.461444 0.0507628 0.786609 -3.24009 0.531143 -0.418409 0.0299865 
239 1 0.943672 0.508676 0.0517338 0.830961 -3.24605 -1.19484 0.354092 -0.0613495 
601 1 0.994422 0.504693 0.100361 0.509229 -3.26101 0.503561 -0.416264 0.146779 
201 1 0.997104 0.506691 0.00207446 1.27631 -3.24023 -0.351383 -1.04212 -0.0556184 
198 1 0.929532 0.468625 0.0027099 1.17878 -3.27107 0.277824 -0.222547 -0.270326 
637 1 0.882996 0.517665 0.105546 2.08138 -3.26666 0.424905 0.302826 -1.31752 
598 1 0.933528 0.466846 0.0998149 0.567135 -3.30865 -0.32665 -0.122822 -0.0256247 
204 1 0.00231202 0.545559 0.050343 0.321602 -3.21708 0.37265 0.230352 0.0512335 
243 1 0.063199 0.582091 0.0473357 1.20127 -3.23843 0.652375 -0.139116 0.637083 
641 1 0.011658 0.590069 0.10125 0.467265 -3.26048 0.126734 0.0681871 -0.341637 
244 1 0.0227543 0.632293 0.0522317 1.07299 -3.27606 -0.254962 0.0635433 -0.381049 
242 1 0.0697816 0.626584 -0.00297264 2.4525 -3.25813 0.863614 -0.0881947 0.404599 
248 1 0.128607 0.613883 0.047852 1.20259 -3.33654 0.380869 0.217822 0.221071 
642 1 0.0769147 0.624038 0.104603 1.41674 -3.27493 0.297073 -0.239085 -0.605816 
245 1 0.128006 0.571933 0.000449041 0.48597 -3.34653 -0.364037 -0.0676359 -0.201051 
247 1 0.184877 0.562666 0.0493822 0.54029 -3.314 -0.118189 0.369945 0.275522 
251 1 0.250843 0.598521 0.0533724 0.464259 -3.3934 -0.0062215 0.00159342 -0.26547 
249 1 0.190437 0.607492 0.000613821 0.234833 -3.25389 -0.00967012 0.0427951 0.531491 
210 1 0.239561 0.559617 -0.000174154 0.887158 -3.28955 0.581581 -0.00255012 0.311498 
646 1 0.185354 0.60648 0.101274 0.840358 -3.33771 0.470456 -0.0222993 -0.122147 
216 1 0.30204 0.546698 0.0491142 1.60776 -3.26355 -0.319503 0.94173 0.223341 
255 1 0.360644 0.584552 0.0514937 0.745841 -3.31134 0.220494 0.266893 -0.111003 
653 1 0.304635 0.591849 0.104892 0.730097 -3.30121 -0.0696957 0.147635 -0.487674 
256 1 0.315888 0.635008 0.0515028 0.406285 -3.35547 -0.395506 0.00242614 0.0438565 
253 1 0.311843 0.593919 -0.00168093 1.37559 -3.27347 -1.01097 -0.616699 0.256932 
254 1 0.370844 0.626831 0.000778829 0.536077 -3.24756 0.592169 0.382338 -0.115171 
259 1 0.431346 0.618582 0.0489026 0.319631 -3.30152 -0.310191 -0.512365 0.0570241 
224 1 0.481691 0.569983 0.0473769 0.506905 -3.32615 -0.504016 0.290975 0.415562 
228 1 0.545036 0.606562 0.0477483 0.276467 -3.30003 -0.504169 -0.106517 0.312689 
625 1 0.53555 0.563461 0.102804 0.819662 -3.31477 0.0953458 0.377141 -0.478773 
622 1 0.489269 0.611232 0.100511 0.6434 -3.30791 -0.260032 -0.106195 -0.515297 
227 1 0.594674 0.557492 0.0495717 0.278155 -3.32479 -0.18674 0.0819112 -0.0247419 
629 1 0.651046 0.5474 0.096661 0.36814 -3.37895 0.263763 0.22293 0.460111 
232 1 0.663626 0.59014 0.0470424 0.767162 -3.24755 -0.85742 -0.0188321 0.0503676 
626 1 0.602886 0.599925 0.0984002 0.256566 -3.40903 -0.253727 -0.18828 0.176263 
271 1 0.723327 0.625827 0.0471279 0.851817 -3.27187 1.03772 0.370998 -0.065052 
236 1 0.775559 0.573335 0.0501382 0.495385 -3.30028 -0.152966 0.358714 -0.095329 
275 1 0.839398 0.609698 0.0525088 0.767155 -3.28785 -0.0349733 -0.0582244 -0.404883 
240 1 0.891893 0.559887 0.0535333 0.415695 -3.32906 0.526714 -0.184612 -0.433261 
279 1 0.958002 0.600425 0.0499274 1.38839 -3.35221 -0.306397 -0.706403 0.00598021 
638 1 0.952276 0.553195 0.100007 0.963661 -3.23088 -1.20517 0.0505951 -0.378727 
677 1 0.898319 0.601666 0.0991524 0.479592 -3.31652 0.060852 0.0370481 0.0197003 
283 1 0.0868419 0.664685 0.0501395 0.834855 -3.27859 -0.358399 0.0780213 0.225737 
284 1 0.0331776 0.71795 0.0489122 0.484415 -3.3212 0.0761241 -0.289336 0.316695 
285 1 0.0941889 0.709704 0.00400889 1.13047 -3.29774 -0.458085 -0.0515266 -0.304515 
685 1 0.141109 0.656876 0.104612 0.783226 -3.28279 -0.0454736 0.346451 -0.478642 
246 1 0.142696 0.656637 0.00343517 0.740229 -3.30214 -0.115901 -0.149319 -0.291091 
682 1 0.092218 0.707879 0.0991679 0.57981 -3.37131 -0.358448 -0.0544397 0.368417 
281 1 0.0253892 0.677848 0.000870276 0.738024 -3.36656 -0.116494 -0.255106 0.225951 
252 1 0.198372 0.648881 0.0561273 0.788795 -3.34135 -0.192196 -0.0971545 -0.455244 
287 1 0.148436 0.698747 0.05161 0.346508 -3.2643 0.47547 0.364163 0.127312 
289 1 0.204139 0.691829 0.0011429 0.526684 -3.27305 0.142187 0.405897 0.507483 
250 1 0.25277 0.64181 0.00424694 0.965046 -3.34107 0.511792 0.411224 0.0241712 
650 1 0.254494 0.640029 0.103274 0.628101 -3.24808 -0.0257375 0.16664 -0.47178 
291 1 0.262087 0.684955 0.0554092 0.685042 -3.31415 -0.0148651 0.0622019 -0.687734 
290 1 0.268071 0.728517 0.00497555 0.404321 -3.30437 0.152174 -0.0410226 0.089963 
295 1 0.332829 0.714809 0.0524653 2.21601 -3.35971 0.0499331 0.460479 -0.127088 
260 1 0.384173 0.666305 0.0481365 1.19747 -3.30402 -0.472958 0.432447 0.22263 
658 1 0.390444 0.709325 0.102819 1.32394 -3.33331 -0.0550684 0.293014 -0.634321 
293 1 0.320322 0.677409 -0.00166733 1.14289 -3.30234 -0.23823 0.0759872 0.758159 
264 1 0.44835 0.702767 0.0479464 1.04731 -3.29409 -0.644697 0.193607 0.178519 
263 1 0.491542 0.653083 0.0458759 1.11399 -3.28629 0.644337 0.298917 0.191381 
258 1 0.434439 0.6621 -0.00315909 0.750275 -3.27172 0.193961 0.309064 0.162164 
262 1 0.504111 0.695332 0.000765705 0.777177 -3.37216 0.417121 0.337297 -0.173031 
268 1 0.562385 0.688416 0.0549517 1.69319 -3.2641 -0.868867 0.0692682 -0.709485 
265 1 0.553551 0.647277 -0.00369703 0.618738 -3.31692 -0.240245 0.0318484 0.053472 
662 1 0.496533 0.697835 0.100923 1.59912 -3.36192 0.555543 0.320751 0.075976 
267 1 0.60774 0.639949 0.0463281 0.870428 -3.28315 0.52568 0.198966 0.506857 
266 1 0.617529 0.681687 0.000345203 0.511568 -3.2889 0.243836 -0.00137014 -0.0695854 
272 1 0.678015 0.673532 0.0507051 0.546327 -3.29852 -0.329872 0.0760427 -0.38653 
709 1 0.68081 0.718384 0.104398 1.74546 -3.31003 0.312614 0.0675606 -0.546746 
307 1 0.626604 0.71855 0.0526979 1.79165 -3.26046 0.74493 0.937622 -0.327977 
270 1 0.735522 0.668968 -0.000888423 0.371012 -3.32841 -0.112622 -0.28235 0.237356 
311 1 0.738287 0.711211 0.052683 1.15244 -3.34731 0.259862 0.303692 -0.288097 
276 1 0.794875 0.660349 0.0474824 0.809289 -3.36285 -0.178477 -0.202008 0.164606 
315 1 0.858372 0.696712 0.0517133 0.611833 -3.33 -0.383801 0.000263144 0.108632 
313 1 0.80025 0.702416 0.000878524 0.335392 -3.34037 0.126797 0.0369244 0.0334199 
274 1 0.851604 0.653786 -0.00262784 0.836952 -3.18451 -0.419336 -0.0582687 0.447898 
280 1 0.900075 0.646476 0.049166 1.18955 -3.29429 0.517701 0.172029 0.3438 
319 1 0.966834 0.683562 0.053952 0.706709 -3.34681 -0.0684504 -0.142558 -0.37512 
278 1 0.958826 0.640961 0.00122953 0.611699 -3.28594 0.797841 -0.0443924 0.412852 
317 1 0.911402 0.688634 0.00205293 0.336478 -3.26581 0.188307 0.514056 0.00197149 
288 1 0.0969269 0.753484 0.0510812 0.540354 -3.30356 0.167074 -0.357277 -0.160098 
323 1 0.0436268 0.800527 0.0477795 0.748118 -3.28045 0.196761 0.169848 -0.00303732 
721 1 0.0387192 0.756955 0.1032 0.925601 -3.2052 -0.227723 -0.39028 -0.140756 
325 1 0.105406 0.791857 -0.00265368 0.95572 -3.30387 0.291309 0.389425 0.0399773 
292 1 0.21042 0.736234 0.0519586 0.671052 -3.31611 0.0698109 -0.0750832 0.176921 
327 1 0.161988 0.788125 0.0510231 0.400609 -3.30381 -0.050958 -0.327313 0.123961 
690 1 0.221379 0.780436 0.102465 0.315108 -3.35009 -0.131014 -0.545828 -0.252075 
286 1 0.156942 0.745295 -0.000296522 1.10759 -3.32583 -0.128068 -0.00212565 0.322368 
296 1 0.279445 0.766436 0.0526982 2.22331 -3.22051 -0.00457959 0.323901 0.241516 
333 1 0.282872 0.814265 -0.00222952 0.809365 -3.16932 0.579662 0.438814 0.680502 
331 1 0.225449 0.825439 0.0525113 1.16289 -3.29015 -0.0735418 -0.361757 -0.225175 
694 1 0.28389 0.816666 0.10178 0.632874 -3.2561 -0.208877 -0.339392 -0.238239 
300 1 0.33571 0.806806 0.0522383 2.03219 -3.29455 0.436037 0.19019 -0.440163 
299 1 0.399457 0.755912 0.049286 1.68445 -3.22573 -1.15344 -0.547981 0.266344 
698 1 0.395259 0.80078 0.0969983 1.26301 -3.29898 0.275418 -0.0783543 0.441242 
294 1 0.336001 0.766779 0.00471376 1.61702 -3.30977 -0.34023 -0.481776 -0.362521 
298 1 0.402801 0.796057 0.00306139 0.727982 -3.32401 0.0974411 0.448572 -0.330185 
304 1 0.462608 0.788327 0.0541797 1.32138 -3.25389 0.132783 0.492072 -0.634335 
701 1 0.447959 0.750154 0.0989077 1.76892 -3.23894 0.358109 -0.443584 0.396021 
301 1 0.453159 0.747258 0.0032175 0.487127 -3.25423 0.15609 0.0719891 -0.258867 
303 1 0.510308 0.738597 0.0511377 0.425262 -3.30338 0.144115 -0.225114 -0.0606606 
702 1 0.522622 0.77853 0.100114 1.75652 -3.2802 -0.324155 0.381662 -0.0878318 
705 1 0.573468 0.731336 0.10074 0.844756 -3.31761 -0.468185 -0.24238 0.113459 
305 1 0.575279 0.728701 -0.00145511 1.60653 -3.30231 -0.817499 0.183954 0.109778 
302 1 0.519901 0.780612 -0.000645542 0.395981 -3.3166 -0.137752 0.263136 0.443981 
308 1 0.576057 0.769737 0.048822 0.711235 -3.29738 0.291058 0.383225 -0.00268232 
312 1 0.690289 0.760846 0.0455155 1.15588 -3.34115 -0.0305295 -0.415931 0.677085 
347 1 0.639697 0.807331 0.0476422 0.409419 -3.37174 0.0675738 0.219601 0.0391908 
706 1 0.634452 0.768259 0.0992468 0.576335 -3.29669 -0.283427 -0.263045 -0.0606594 
349 1 0.698373 0.797228 -0.00479689 1.7782 -3.28747 0.389613 0.454044 0.0470385 
745 1 0.580185 0.817345 0.100382 1.06564 -3.34112 0.493028 -0.0871852 -0.10041 
749 1 0.69686 0.801263 0.0987755 0.505497 -3.26681 0.571172 -0.14196 -0.137932 
351 1 0.756475 0.795898 0.0472787 0.802259 -3.279 -0.392915 -0.398173 0.13012 
316 1 0.805046 0.746183 0.0547755 1.44996 -3.30493 -0.0439994 -0.598772 -0.585383 
714 1 0.860562 0.73806 0.10505 0.871576 -3.3132 0.149553 -0.0892029 -0.703467 
353 1 0.808443 0.785255 -0.00528627 1.61732 -3.27583 0.467033 0.393877 0.187047 
314 1 0.860587 0.74086 -0.0021533 0.738603 -3.3058 -0.396713 -0.339121 0.392993 
355 1 0.865934 0.781568 0.0521657 0.51458 -3.23958 0.0955036 -0.433608 -0.571311 
320 1 0.916606 0.733523 0.0494628 0.650415 -3.24959 -0.404127 -0.247604 0.371315 
359 1 0.980712 0.763802 0.0507977 0.826941 -3.26898 0.459593 0.663221 0.0095267 
757 1 0.926918 0.774742 0.100573 0.465899 -3.31777 -0.287467 -0.619534 0.0973622 
328 1 0.112373 0.833021 0.0486488 1.23349 -3.25959 -0.40358 0.23283 0.0724922 
363 1 0.0607278 0.88673 0.052436 0.592249 -3.32414 -0.250759 -0.367203 -0.313159 
365 1 0.115166 0.882377 -0.00242301 1.05084 -3.3551 0.0179348 -0.332674 0.21119 
332 1 0.170068 0.871841 0.0512657 0.681453 -3.3042 0.337742 0.228949 -0.329019 
330 1 0.228727 0.864912 -0.00138331 1.18977 -3.29578 0.706209 0.143301 0.302254 
336 1 0.238675 0.905042 0.0550388 1.13688 -3.36279 0.439088 0.219489 -0.470029 
326 1 0.165995 0.831039 -0.00121027 0.753917 -3.32446 -0.122725 -0.302138 -0.226457 
335 1 0.292082 0.856263 0.0456208 1.63916 -3.31797 -0.137998 0.16365 0.311695 
340 1 0.359357 0.887381 0.051649 0.805903 -3.3554 0.193882 0.492272 -0.269687 
337 1 0.348944 0.84637 -0.00342065 1.00375 -3.33126 0.570748 0.344739 0.260861 
339 1 0.40791 0.839851 0.0473578 1.089 -3.33002 -0.221808 0.0319807 0.199085 
738 1 0.420179 0.879288 0.101868 1.21595 -3.27766 -0.623391 0.481132 -0.388002 
334 1 0.301489 0.900677 0.00280258 0.82737 -3.34591 -0.183193 -0.553725 -0.068699 
344 1 0.477184 0.871215 0.0550238 1.79447 -3.29099 -0.140752 0.546698 -0.864524 
343 1 0.525249 0.823877 0.0510305 0.463564 -3.33331 0.24269 -0.198678 -0.365393 
383 1 0.543601 0.908792 0.04893 0.432879 -3.25787 -0.518237 -0.561534 0.15567 
742 1 0.53309 0.865688 0.0999803 0.251004 -3.31104 -0.066802 0.10116 0.1645 
348 1 0.594007 0.855826 0.0463884 0.657101 -3.32616 -0.197433 -0.136779 0.146541 
352 1 0.708316 0.843935 0.0504372 0.517606 -3.25266 -0.396814 -0.36599 -0.369723 