ITEM: TIMESTEP
15500
ITEM: NUMBER OF ATOMS
4000
ITEM: BOX BOUNDS pp pp pp
3.0753117131620047e+00 3.7424688286837423e+01
-3.5364492964234251e+00 4.4036449296422497e+01
-2.7166792291224023e-01 4.0771667922912748e+01
ITEM: ATOMS id type xs ys zs c_csym c_peratom fx fy fz 
405 1 0.0340795 0.0670745 0.102677 0.409386 -3.37714 0.026019 0.0126096 -0.0195203 
7 1 0.0944286 0.0603359 0.0483581 1.22693 -3.31648 -0.573355 -0.289052 0.530434 
3 1 0.0299824 0.0220445 0.0543088 0.78141 -3.3248 0.0793601 0.18783 -0.305284 
2 1 0.0327437 0.0655173 1.00347 0.534068 -3.34887 0.0730691 0.039163 -0.265919 
5 1 0.085296 0.0145677 0.000735655 0.502604 -3.29343 -0.315371 0.182235 0.0309076 
766 1 0.0841785 0.0148468 0.102613 0.482659 -3.35131 0.0921748 -0.0591088 -0.0180796 
12 1 0.156466 0.0941197 0.0536593 0.681182 -3.28581 -0.365387 0.195648 -0.444476 
11 1 0.202697 0.0471065 0.0506602 1.04467 -3.26574 0.1037 -0.411725 0.0114439 
9 1 0.149842 0.0525805 0.00318529 0.766994 -3.26021 -0.302969 -0.0404149 -0.337377 
409 1 0.149262 0.0494655 0.100249 0.727553 -3.29033 -0.270516 -0.0517215 -0.239432 
410 1 0.210414 0.0895794 0.100677 1.37385 -3.19101 0.304706 -0.704822 -0.158811 
372 1 0.141084 0.00307915 0.0459833 2.65681 -3.2772 0.171516 0.690413 0.814252 
16 1 0.274414 0.0787497 0.0490545 0.728284 -3.31939 -0.161819 0.476239 -0.232582 
15 1 0.321325 0.0316794 0.0511334 0.312394 -3.30025 -0.163824 -0.373403 -0.222562 
413 1 0.260581 0.040332 0.094034 2.054 -3.28985 0.133441 -0.350468 0.93492 
414 1 0.327271 0.0739851 0.103344 1.60123 -3.33081 0.221249 -0.1864 -0.303855 
20 1 0.388998 0.0613802 0.0490165 0.836502 -3.25777 0.291766 0.316247 -0.323174 
19 1 0.442693 0.00786681 0.0448837 2.64315 -3.1826 -0.315059 1.33042 0.318994 
418 1 0.454978 0.0480608 0.101406 3.81888 -3.28275 -0.651629 0.718702 -0.306433 
17 1 0.38101 0.0213247 1.00097 0.380905 -3.27753 0.251661 -0.128919 -0.0448897 
421 1 0.495873 0.000307479 0.0960948 1.91152 -3.19123 0.871851 0.333221 1.03248 
417 1 0.377672 0.0270168 0.09746 2.54464 -3.28435 0.23389 -0.656151 0.413251 
24 1 0.507316 0.0428686 0.0517362 0.510251 -3.32438 -0.0076308 0.221065 -0.440983 
28 1 0.618231 0.0268786 0.0529808 1.03548 -3.30415 0.838181 0.597402 -0.360638 
22 1 0.56222 0.03946 0.00246012 1.18396 -3.3744 0.162263 -0.14449 -0.177068 
65 1 0.632603 0.0743745 -0.00225278 1.36031 -3.30726 -0.472761 -0.346304 0.498012 
23 1 0.55968 -0.00930392 0.0509414 1.49512 -3.21918 -0.476394 0.374994 0.0224134 
422 1 0.564989 0.0327529 0.0985546 1.31988 -3.28198 -0.448167 0.224617 0.576972 
32 1 0.736691 0.0111673 0.0510962 0.894815 -3.36333 0.213557 0.507276 -0.25195 
67 1 0.687676 0.0652224 0.0487492 0.481867 -3.30169 -0.402386 -0.735795 0.0513816 
469 1 0.74704 0.0547866 0.103583 1.03889 -3.29534 -0.248187 0.0933213 -0.671669 
426 1 0.68291 0.0192324 0.101541 0.817426 -3.33663 -0.366784 0.183479 -0.415747 
465 1 0.623745 0.070213 0.102079 1.26237 -3.34763 0.534853 0.120265 -0.324675 
30 1 0.749866 0.0583619 0.997969 1.23802 -3.29939 -1.06942 -0.371002 0.404494 
36 1 0.803348 0.0493613 0.0472597 0.539114 -3.37372 -0.164284 -0.105069 0.293164 
35 1 0.858502 -0.00680562 0.0514253 3.59613 -3.31633 -0.505602 0.49231 -0.315971 
434 1 0.857348 0.0410963 0.0976951 0.628356 -3.25225 0.0139669 -0.206553 0.105417 
430 1 0.79587 0.00721514 0.100429 0.463656 -3.30632 -0.19712 -0.175628 -0.14508 
33 1 0.797384 0.00566985 7.25114e-05 0.733118 -3.27997 -0.662289 0.161143 0.716503 
4 1 0.976692 0.0713285 0.0511339 0.583569 -3.34598 -0.144336 0.336936 0.165253 
40 1 0.912453 0.0362876 0.0487587 0.59051 -3.33464 0.113383 0.0729565 0.0977886 
401 1 0.969088 0.0301587 0.0992668 0.643555 -3.31297 0.197595 -0.0851498 0.373491 
437 1 0.909135 0.992708 0.101177 0.636219 -3.27822 0.238529 -0.0761647 -0.0644609 
438 1 0.914117 0.0775132 0.10426 1.75642 -3.26301 1.03897 0.443445 -0.659766 
38 1 0.971582 0.0280491 1.00096 0.461568 -3.24559 0.385133 0.551694 -0.0580004 
77 1 0.918504 0.0823906 0.0010323 0.96224 -3.29548 0.761988 -0.310181 -0.120596 
8 1 0.0354446 0.112634 0.0521453 1.52237 -3.31373 0.554821 -0.612644 0.162851 
47 1 0.103986 0.146582 0.0464183 1.95275 -3.31329 -0.248497 -0.133094 0.600427 
406 1 0.0977126 0.104161 0.102338 0.816955 -3.33061 -0.0476538 -0.427086 -0.286744 
445 1 0.0499557 0.149076 0.107504 2.51047 -3.25088 -0.629333 -0.076298 -0.691218 
52 1 0.169835 0.181697 0.0535896 0.935043 -3.29195 -0.154461 -0.300347 -0.462844 
51 1 0.223566 0.127579 0.0541775 0.816974 -3.28896 -0.0186428 0.295924 -0.595659 
449 1 0.161487 0.136766 0.0975351 1.07989 -3.32056 -0.100266 0.277329 0.395925 
450 1 0.224917 0.172683 0.0983779 1.082 -3.3165 0.433736 -0.00824335 0.403331 
49 1 0.164138 0.136497 1.0063 1.12622 -3.37296 0.127155 -0.0210167 -0.576112 
55 1 0.341272 0.111696 0.0476567 0.799542 -3.3543 -0.243762 0.326879 0.332836 
56 1 0.286599 0.163794 0.0521903 0.891644 -3.30424 0.0546058 -0.554228 0.435843 
453 1 0.277471 0.118255 0.101999 1.16579 -3.24724 0.890712 0.791438 -0.589559 
454 1 0.35349 0.152317 0.104098 1.96143 -3.28928 -1.34244 -0.482505 -0.449895 
59 1 0.45922 0.094046 0.0543006 1.23953 -3.33033 -0.17389 -0.277489 -0.403153 
60 1 0.408719 0.142937 0.0547119 1.40699 -3.30085 -0.119056 0.0232425 -0.793414 
58 1 0.464771 0.136903 -0.00156256 0.790657 -3.28091 -0.872379 -0.332177 0.402955 
458 1 0.465564 0.137605 0.102837 0.450286 -3.25121 -0.398296 -0.186859 -0.117315 
457 1 0.400061 0.0989563 0.0973499 2.37606 -3.29873 -0.142897 0.0420609 0.606321 
63 1 0.56937 0.0810526 0.0526891 0.696483 -3.35498 0.0269676 -0.230918 -0.209748 
61 1 0.509143 0.0877296 -0.00274039 1.20146 -3.3028 0.459319 -0.0252138 0.411308 
64 1 0.518624 0.130088 0.0522985 0.434139 -3.29297 0.256284 -0.267532 0.00868291 
103 1 0.587078 0.162684 0.0513107 0.183978 -3.38601 -0.0552157 0.113263 -0.00481058 
461 1 0.513496 0.087224 0.10467 0.778028 -3.3201 0.320164 -0.252606 -0.355931 
462 1 0.580269 0.121719 0.101046 0.410849 -3.32077 -0.129906 -0.231157 -0.0446339 
68 1 0.639042 0.113623 0.0505137 0.489847 -3.33781 -0.358736 -0.220493 -0.0745032 
72 1 0.701775 0.149813 0.0530675 0.625073 -3.19254 -0.27685 -0.277973 -0.802919 
71 1 0.748136 0.098081 0.0508264 1.13668 -3.33216 0.940841 0.135855 -0.30262 
505 1 0.647798 0.152383 0.100009 0.801235 -3.30509 -0.386356 0.279474 0.319885 
466 1 0.693987 0.102248 0.0992099 1.01805 -3.28838 0.0242256 0.342884 0.239374 
75 1 0.867623 0.0887713 0.050262 0.705595 -3.28335 -0.194644 -0.59076 0.172659 
473 1 0.812642 0.0900278 0.0987051 1.05451 -3.31646 -0.489987 0.369293 -0.0536826 
76 1 0.818468 0.135515 0.0476921 0.524629 -3.31255 -0.84427 0.188068 0.12272 
73 1 0.810797 0.0939858 0.998341 0.435656 -3.29899 -0.186425 0.21458 0.303055 
470 1 0.758205 0.141764 0.0934461 1.96097 -3.29005 0.668476 -0.351172 0.934433 
477 1 0.868469 0.130599 0.0990832 0.928712 -3.28938 0.395303 0.01542 0.448428 
74 1 0.873771 0.128257 1.00329 1.20223 -3.23699 -0.125279 0.59023 -0.716756 
43 1 0.99075 0.157525 0.0550839 1.2599 -3.24698 0.225984 0.815799 -0.172353 
79 1 0.930191 0.126691 0.0517928 1.29245 -3.24596 -0.323726 -0.805539 0.057262 
80 1 0.879815 0.172483 0.0503235 0.291882 -3.34479 -0.125432 0.46186 -0.0135618 
402 1 0.979181 0.116286 0.104936 0.78676 -3.33034 0.444982 -0.372507 -0.158016 
441 1 0.932221 0.165609 0.104334 1.02159 -3.36236 0.221624 0.38758 -0.0167262 
41 1 0.984033 0.116246 2.01326e-05 0.431746 -3.33966 -0.321494 -0.127873 -0.304792 
78 1 0.934651 0.16892 1.00102 0.57778 -3.34688 0.067958 -0.392045 0.0199507 
446 1 0.108594 0.18374 0.101806 1.16453 -3.31397 0.602847 0.361633 -0.230627 
48 1 0.0537784 0.193464 0.0491077 0.543773 -3.31189 -0.233579 -0.352194 -0.00569247 
42 1 0.997039 0.205466 1.00046 1.16971 -3.24847 0.229358 -1.06201 -0.383655 
83 1 0.00581696 0.244298 0.0476271 0.237577 -3.2137 -0.0138214 0.421817 0.470583 
485 1 0.0606161 0.235288 0.0953853 0.990869 -3.29854 0.359391 0.400807 0.703809 
85 1 0.0640487 0.236188 -0.00167728 0.334766 -3.30076 -0.0254027 -0.247097 -0.240391 
442 1 -0.00223328 0.204268 0.0964603 1.56533 -3.30686 -0.362645 -0.482853 0.714008 
46 1 0.113406 0.188914 0.000222456 0.835469 -3.31258 -0.21025 -0.488066 -0.370937 
87 1 0.115916 0.226265 0.0502217 0.720866 -3.2628 0.700945 0.427849 0.225615 
91 1 0.238836 0.213547 0.0504582 0.603481 -3.29729 -0.195583 0.13668 0.377026 
92 1 0.186766 0.261744 0.0485661 0.419874 -3.36701 0.209505 0.0706461 0.456702 
86 1 0.127596 0.269339 0.999517 0.563723 -3.3132 0.503656 -0.132904 -0.259005 
489 1 0.174412 0.220686 0.101817 0.583305 -3.3234 0.125177 0.112556 -0.203742 
89 1 0.176596 0.221829 0.00394425 1.31524 -3.31421 0.606786 -0.0498395 -0.821178 
486 1 0.122529 0.27333 0.0981113 1.35532 -3.33231 0.329618 -0.411314 -0.123903 
490 1 0.242591 0.253277 0.104845 1.25625 -3.33388 0.395241 0.114787 -0.607169 
95 1 0.353351 0.189995 0.050589 1.61114 -3.31776 0.515996 0.30134 0.355709 
96 1 0.310771 0.243105 0.0527544 1.17222 -3.275 -0.50088 0.00986369 -0.0984415 
493 1 0.292743 0.205331 0.102978 0.945593 -3.32792 0.263318 -0.249073 -0.148368 
94 1 0.363602 0.232561 1.00526 1.62566 -3.29547 -0.28397 0.0957379 -0.564866 
494 1 0.363185 0.233737 0.102632 0.384607 -3.33605 0.466384 -0.103946 0.063301 
99 1 0.469942 0.179663 0.0506226 0.537853 -3.30072 0.069716 -0.0757771 0.25377 
100 1 0.422266 0.225765 0.0538829 0.534655 -3.34015 -0.200335 0.383075 0.196337 
139 1 0.491067 0.260699 0.0591751 2.5995 -3.26721 -0.415983 0.490578 -1.00401 
497 1 0.414598 0.183518 0.101886 0.459718 -3.27915 0.162669 0.70452 0.231614 
97 1 0.413749 0.187532 0.000578259 0.619301 -3.30478 -0.2071 -0.417421 0.124773 
98 1 0.478131 0.224443 1.0045 1.6744 -3.32057 0.415615 -0.29158 -0.2608 
498 1 0.477598 0.218549 0.106915 1.10135 -3.26362 0.104952 0.121682 -0.634053 
104 1 0.536884 0.213764 0.0528945 0.453676 -3.33553 0.0114349 -0.491198 -0.336055 
108 1 0.601653 0.245813 0.0478736 1.28746 -3.3156 0.0513859 0.392268 0.44948 
502 1 0.595163 0.202592 0.102982 0.400339 -3.31426 -0.200227 -0.104787 -0.238204 
501 1 0.527381 0.169988 0.102868 0.263717 -3.29419 0.388803 0.479973 -0.403106 
541 1 0.54566 0.250989 0.101874 0.922038 -3.2591 0.421285 0.345978 0.339369 
107 1 0.653737 0.196976 0.0535244 0.624413 -3.30966 -0.345352 0.272524 -0.0827598 
509 1 0.708241 0.189083 0.103329 0.72986 -3.21482 -0.469518 -0.0362812 -0.114974 
112 1 0.720796 0.237366 0.0550359 2.36317 -3.28361 -0.714409 -0.535154 -0.788191 
506 1 0.653832 0.237331 0.101586 1.39552 -3.30083 0.312574 0.455971 -0.0724987 
109 1 0.702908 0.19532 1.00444 1.83593 -3.34144 0.418606 0.0221369 -0.483178 
115 1 0.830206 0.221483 0.0527354 0.964175 -3.35644 -0.214195 0.0813468 -0.300881 
111 1 0.761385 0.185707 0.0496421 1.08553 -3.3333 0.662023 0.184524 -0.329895 
517 1 0.83467 0.265512 0.0969527 0.965966 -3.31707 -0.230647 -0.187254 0.150171 
474 1 0.822365 0.179589 0.0999727 0.304923 -3.3454 0.0810339 -0.297115 -0.0476605 
513 1 0.768185 0.222859 0.102281 2.15495 -3.20033 0.951582 0.882172 -0.0646785 
110 1 0.779946 0.230234 0.00104534 3.14611 -3.26006 -1.27752 -0.197342 0.507358 
44 1 0.94361 0.210781 0.0498168 0.404516 -3.28624 -0.778929 -0.33304 0.209635 
81 1 0.952704 0.249796 -0.000829766 1.37092 -3.27669 -0.95406 0.528133 -0.240471 
119 1 0.891607 0.261106 0.0462607 1.00902 -3.36801 0.145998 -0.287879 0.22756 
478 1 0.884868 0.216762 0.10281 0.505803 -3.31511 0.201373 -0.24172 -0.339324 
481 1 0.945412 0.254215 0.0973175 1.13793 -3.32673 0.335857 -0.242253 -0.0321418 
88 1 0.0705985 0.276329 0.0455859 0.908775 -3.28002 0.147578 0.384944 0.688026 
123 1 0.0227595 0.327663 0.0512887 0.521254 -3.34612 0.061688 0.369889 -0.0456138 
128 1 0.0871688 0.363372 0.0459357 0.80544 -3.32061 0.172738 -0.240745 0.440696 
482 1 0.0155476 0.28679 0.0991204 0.636047 -3.37 0.192086 -0.322579 -0.0553331 
525 1 0.0827381 0.323539 0.0967858 0.922191 -3.26892 -0.917027 -0.511679 0.0382035 
82 1 0.0123143 0.286639 1.0031 0.704757 -3.24818 -0.188742 -0.0838567 -0.27117 
125 1 0.0783128 0.318936 0.0004404 0.432105 -3.3208 0.13778 0.247198 0.0362526 
127 1 0.138571 0.308861 0.0466934 1.36523 -3.32222 -0.0063491 0.395162 0.322923 
132 1 0.200225 0.347166 0.0523119 1.3928 -3.2768 0.406883 -0.115939 -0.242339 
526 1 0.142409 0.354303 0.0994163 0.663914 -3.23591 0.804112 0.691146 -0.193076 
529 1 0.19572 0.303265 0.100277 0.717001 -3.30852 0.140741 0.139749 -0.488424 
131 1 0.258837 0.292456 0.0477169 1.38354 -3.29947 -0.10833 -0.0657472 0.830605 
136 1 0.321807 0.328099 0.0550905 1.34404 -3.32759 0.264204 0.0210983 -0.0532571 
533 1 0.316963 0.281546 0.10207 1.82664 -3.32256 -0.238596 0.690975 0.11531 
130 1 0.266751 0.336504 1.00458 1.381 -3.3327 0.01673 0.376524 -0.188293 
135 1 0.373807 0.27876 0.0510134 0.774446 -3.371 0.277507 0.0370343 0.266311 
534 1 0.384131 0.319596 0.105548 1.0991 -3.33371 -0.409357 -0.03993 -0.492394 
530 1 0.258139 0.340121 0.0944708 3.39987 -3.2978 0.489183 -0.280699 0.639051 
140 1 0.442409 0.316596 0.0534528 1.90476 -3.29037 -0.41039 -0.764383 0.188184 
538 1 0.492539 0.304628 0.104913 1.03909 -3.30006 0.601808 0.566087 -0.242773 
577 1 0.44509 0.359608 0.101747 1.02995 -3.31734 0.280089 -0.417375 -0.234544 
144 1 0.510264 0.347134 0.0522218 1.21905 -3.3411 -0.173953 -0.254185 0.173115 
137 1 0.42592 0.265542 -0.000106146 2.54227 -3.2629 0.203829 0.73671 0.346927 
537 1 0.432179 0.269441 0.102766 0.531374 -3.32919 -0.682785 -0.0402626 -0.0730495 
143 1 0.559983 0.297168 0.0561193 1.93252 -3.33748 -0.649242 0.0431815 -0.302484 
545 1 0.610603 0.288333 0.10572 0.987039 -3.2773 0.38731 0.0790914 -0.740876 
148 1 0.619942 0.336447 0.0503866 0.612946 -3.32325 -0.213607 -0.164517 0.322088 
542 1 0.565499 0.339301 0.107454 2.2423 -3.23367 -1.04749 0.0258703 -1.16292 
147 1 0.670661 0.284066 0.0517783 1.19837 -3.28702 -0.960769 -0.181041 -0.164048 
151 1 0.727116 0.321666 0.0526483 0.551215 -3.2407 0.45088 0.303395 -0.0457227 
549 1 0.673536 0.327701 0.100815 0.613708 -3.29596 -0.654586 -0.250745 0.360697 
510 1 0.715951 0.275301 0.103224 1.80667 -3.24608 0.511575 0.648889 0.389866 
553 1 0.733274 0.359906 0.104125 2.82682 -3.30089 0.695405 0.869327 -0.153994 
116 1 0.776652 0.27624 0.0529692 1.76063 -3.29526 0.201085 -0.362772 -0.0788066 
120 1 0.845129 0.310461 0.0518152 0.592508 -3.28075 -0.511267 -0.0572502 -0.0181421 
153 1 0.786942 0.316619 0.0046028 0.746434 -3.32372 -0.222665 0.0653091 -0.57795 
155 1 0.79391 0.358382 0.0513347 0.530446 -3.30244 0.151985 0.15786 0.687664 
157 1 0.848827 0.354754 -0.000260293 0.590699 -3.34619 -0.0800497 -0.234389 -0.064437 
514 1 0.786625 0.313603 0.104971 1.09932 -3.28884 -0.677123 0.409323 -0.757186 
557 1 0.848531 0.354336 0.103156 0.530921 -3.32721 -0.00560598 -0.054851 -0.430402 
84 1 0.95523 0.298297 0.0509902 0.890464 -3.30518 -0.183141 -0.569387 -0.0350752 
159 1 0.904573 0.347141 0.0516739 0.508958 -3.28641 0.265864 -0.0636105 0.0370573 
121 1 0.964149 0.338022 1.00378 0.943587 -3.33379 0.00466467 -0.161767 -0.623163 
518 1 0.896226 0.303168 0.101075 0.566894 -3.31476 0.209919 0.17145 0.0240771 
118 1 0.897523 0.30527 1.00199 0.679357 -3.33765 -0.0331663 -0.179146 -0.409689 
521 1 0.963729 0.334034 0.103007 1.02136 -3.30956 0.0772789 0.585303 -0.276012 
122 1 0.0330243 0.370014 -0.00411727 1.05328 -3.31335 -0.547817 -0.0743602 0.348323 
522 1 0.0308749 0.371911 0.0990173 0.361111 -3.38141 -0.165391 0.0709266 0.112895 
163 1 0.0404225 0.410642 0.0482109 0.607801 -3.34464 -0.117029 0.343751 0.0268114 
168 1 0.107504 0.448235 0.0454665 1.13847 -3.31079 -0.373402 -0.281929 0.349506 
565 1 0.0996666 0.406595 0.09634 0.891841 -3.32227 -0.256253 -0.223478 0.246744 
167 1 0.157974 0.396525 0.0492314 0.396142 -3.30656 -0.408671 -0.123179 0.357634 
172 1 0.22293 0.428701 0.0508737 0.533836 -3.26349 -0.355922 0.112962 0.392734 
569 1 0.211299 0.388417 0.100746 0.456918 -3.36329 0.0256808 0.0965754 0.341299 
566 1 0.160817 0.441239 0.0978398 0.605211 -3.336 0.138226 -0.178925 0.271949 
169 1 0.212082 0.387086 0.998685 0.963636 -3.3111 0.398893 -0.21094 0.431663 
171 1 0.273255 0.382705 0.0485044 1.15506 -3.30901 -0.383411 -0.567915 0.0727514 
176 1 0.338484 0.412778 0.0498961 0.382828 -3.33919 0.276465 0.364677 -0.00546237 
573 1 0.330069 0.371662 0.101071 0.437672 -3.35248 0.0278868 -0.128916 -0.0720147 
570 1 0.280429 0.420028 0.100494 0.676779 -3.3513 -0.0512541 0.137001 0.341196 
175 1 0.388833 0.362878 0.0497272 0.384832 -3.34111 -0.188619 0.277867 0.249395 
170 1 0.277151 0.426373 1.00368 1.30902 -3.26207 0.269871 -0.568643 -0.707344 
179 1 0.457695 0.396832 0.0461158 1.49371 -3.32943 -0.593349 0.148533 0.50059 
180 1 0.406016 0.445719 0.0463368 0.859573 -3.31596 -0.288093 0.0403888 0.204533 
578 1 0.457899 0.44092 0.100757 0.727182 -3.33452 0.579631 0.0994303 -0.182631 
574 1 0.398424 0.406592 0.0991719 0.387666 -3.30036 -0.380771 -0.372577 -0.101536 
138 1 0.446769 0.352296 0.00341869 1.15762 -3.27685 0.113628 0.547917 -0.189699 
178 1 0.458342 0.439546 -0.00341193 1.26347 -3.3213 0.472147 0.537386 0.280257 
183 1 0.570828 0.383307 0.0532842 0.722478 -3.22724 -0.510159 0.111856 -0.54041 
184 1 0.51918 0.434907 0.0512334 0.364727 -3.31806 -0.472312 0.135499 0.273955 
187 1 0.628 0.422055 0.0486639 0.381758 -3.33484 0.524446 0.146259 0.0801931 
581 1 0.51068 0.391338 0.0999487 0.540614 -3.37049 0.126175 0.170387 0.158484 
585 1 0.573998 0.430322 0.101601 0.349135 -3.34326 -0.171068 -0.256876 0.218171 
546 1 0.620495 0.380663 0.0997037 1.13164 -3.26181 0.686708 -0.239427 0.380391 
185 1 0.625364 0.379307 -0.00136508 0.434938 -3.32402 -0.398558 -0.0319088 0.222113 
152 1 0.683828 0.374842 0.0489294 1.29088 -3.30438 -0.255835 -0.016774 0.522249 
150 1 0.742074 0.366633 0.00598544 2.55807 -3.26925 -0.325859 -0.232389 -1.14003 
550 1 0.684925 0.412878 0.102159 0.979826 -3.30616 0.160035 0.0856532 -0.668497 
156 1 0.750626 0.411453 0.0459991 2.63884 -3.27739 -0.694212 -0.103755 0.595135 
593 1 0.744738 0.452184 0.0990405 1.70225 -3.32425 0.543626 -0.189237 -0.0933731 
193 1 0.751499 0.451338 -0.0045011 0.630505 -3.29066 -0.455973 0.223861 0.228222 
160 1 0.857432 0.394506 0.0494419 0.332076 -3.29847 -0.110972 -0.102807 -0.0479 
195 1 0.813401 0.44329 0.0495081 0.924992 -3.2674 -0.354348 0.272741 0.0878917 
197 1 0.870104 0.437884 1.00194 1.1027 -3.32988 -0.0522144 -0.187577 -0.572572 
554 1 0.797907 0.405764 0.102065 1.93088 -3.33449 0.131927 -0.549706 -0.579254 
597 1 0.870705 0.433764 0.0969737 1.81347 -3.33499 -0.108809 0.304369 0.536905 
124 1 0.973164 0.378755 0.0495596 0.299082 -3.34696 0.214713 -0.0499727 0.376509 
158 1 0.918372 0.385431 -0.00177111 0.552489 -3.30379 -0.393884 -0.00352003 -0.151254 
199 1 0.925898 0.425725 0.0468896 1.2341 -3.32557 0.268575 0.453424 0.384914 
561 1 0.985287 0.423886 0.102184 1.17751 -3.35309 -0.291885 -0.412362 -0.396984 
558 1 0.916106 0.385713 0.101036 0.339411 -3.34566 0.250129 0.253047 -0.19732 
161 1 0.983055 0.41774 0.996237 0.56804 -3.28481 -0.271021 0.0332508 0.292445 
203 1 0.0544322 0.497387 0.0522826 1.1612 -3.32422 0.523461 -0.11552 -0.417032 
605 1 0.112855 0.492718 0.100074 0.751524 -3.29345 -0.054371 -0.332833 0.0567311 
602 1 0.0648854 0.545972 0.102967 3.48034 -3.27774 0.00618278 -0.866454 -0.405441 
208 1 0.125337 0.528282 0.0510422 1.1295 -3.29659 -0.451317 0.485217 -0.0934265 
562 1 0.0525907 0.453819 0.0963249 2.10353 -3.29724 -0.192726 0.0772654 0.267189 
202 1 0.0703002 0.536882 1.00012 0.83099 -3.27381 -0.580383 -0.498533 0.131287 
207 1 0.172787 0.481121 0.0505638 0.412366 -3.31666 0.176638 -0.137848 0.0576633 
212 1 0.235066 0.517086 0.0486879 1.05496 -3.31738 0.412629 -0.465285 -0.0531781 
609 1 0.231485 0.470749 0.103958 1.67703 -3.30546 -0.11654 0.531538 -0.754098 
606 1 0.182615 0.523287 0.100207 0.338567 -3.2862 0.0399887 -0.24592 0.0248279 
209 1 0.227846 0.470503 1.00281 0.731957 -3.32206 0.0554121 0.748155 -0.179604 
211 1 0.283903 0.463542 0.0532122 1.0761 -3.3163 0.689951 0.498951 0.0702651 
215 1 0.355682 0.496812 0.0500434 0.451246 -3.37298 -0.0317034 -0.0580251 0.0284462 
613 1 0.352168 0.454969 0.0982406 1.14251 -3.33854 -0.496884 -0.0808341 -0.158573 
213 1 0.297343 0.505146 -0.000132414 0.522632 -3.27556 -0.184653 0.560065 0.350518 
610 1 0.297571 0.507683 0.100271 0.415313 -3.3087 0.0789655 -0.170809 -0.431347 
614 1 0.365813 0.542532 0.09942 0.766926 -3.32185 -0.0336925 -0.289085 -0.427906 
174 1 0.34487 0.456698 -0.00245865 0.567601 -3.30231 0.00423047 0.268253 0.71368 
219 1 0.464753 0.48391 0.0508944 0.474295 -3.27404 0.65623 -0.0695909 -0.368092 
621 1 0.473011 0.530537 0.101841 0.303998 -3.28934 -0.126257 0.093437 0.156298 
220 1 0.420435 0.534598 0.0482049 0.388265 -3.32766 -0.182015 0.0867386 0.360476 
617 1 0.416147 0.490731 0.0981937 0.730041 -3.23431 -0.662743 0.115958 0.164174 
217 1 0.412449 0.491269 0.000600096 0.373968 -3.35949 -0.0139663 0.0558405 -0.30097 
188 1 0.581366 0.470543 0.0506799 0.48339 -3.23008 -0.421169 -0.0068084 -0.235846 
582 1 0.524718 0.481036 0.100947 0.482462 -3.29745 -0.38954 -0.332825 -0.0605888 
223 1 0.525638 0.522713 0.0543207 1.29322 -3.29152 0.478623 -0.0939307 -0.575105 
586 1 0.586764 0.513787 0.0981085 0.815917 -3.28483 0.0148736 0.53407 0.532124 
221 1 0.521489 0.47954 1.00324 0.931984 -3.38921 -0.118623 -0.0343012 -0.369695 
191 1 0.689925 0.460195 0.0463129 0.825643 -3.35077 0.104321 -0.507291 0.0492782 
192 1 0.64023 0.504606 0.0487774 0.906385 -3.26418 0.802134 0.727147 -0.0799859 
231 1 0.712438 0.541043 0.0437033 1.61458 -3.28456 -0.603424 -0.235856 0.62782 
629 1 0.649998 0.548253 0.102117 1.20321 -3.31224 0.0796737 0.256873 -0.670841 
589 1 0.634223 0.466644 0.100721 0.692533 -3.3036 0.419564 -0.327583 0.218991 
590 1 0.70252 0.500538 0.0998182 0.642083 -3.34356 -0.0119567 0.15196 -0.118315 
196 1 0.755764 0.490787 0.0475242 0.706086 -3.33398 0.257984 -0.0513762 0.0833066 
194 1 0.817599 0.48289 0.998223 0.847583 -3.30759 -0.288683 0.20513 0.248935 
235 1 0.81982 0.525103 0.0500644 0.814136 -3.31956 0.692465 -0.0555571 0.078017 
233 1 0.769469 0.533195 1.00037 0.891708 -3.28439 -0.227142 0.0397096 -0.608484 
200 1 0.874163 0.478876 0.0536147 1.11077 -3.26344 -0.121188 -0.312453 -0.414569 
594 1 0.814794 0.483078 0.102441 0.83183 -3.35681 -0.271845 0.0398816 -0.340282 
633 1 0.767219 0.536636 0.0967842 0.948249 -3.253 -0.372891 -0.853418 0.253247 
637 1 0.879663 0.517332 0.10104 0.521536 -3.30391 0.188806 0.257799 -0.0820327 
201 1 0.998855 0.504113 -0.00638175 1.62769 -3.32618 0.270535 -0.0649462 0.556977 
164 1 0.990149 0.464094 0.0508595 0.708675 -3.31921 -0.122511 -0.321947 -0.228263 
198 1 0.93478 0.473384 1.00021 1.31336 -3.2813 -0.25025 -0.989982 -0.424131 
239 1 0.937786 0.510593 0.0461254 0.812322 -3.24365 0.569721 0.475646 0.699412 
601 1 -3.50698e-05 0.502313 0.102 1.40642 -3.30639 -0.126769 0.468892 -0.212634 
598 1 0.934187 0.471876 0.0989559 0.745073 -3.32959 -0.334353 -0.393548 0.26818 
243 1 0.074748 0.579412 0.0496846 0.447817 -3.3134 0.0121429 0.0599715 0.216816 
642 1 0.0790134 0.623007 0.0994915 0.477339 -3.33227 0.362885 -0.132496 -0.0966741 
248 1 0.137829 0.614331 0.0479296 0.575059 -3.38157 0.329103 0.10921 0.138691 
645 1 0.13735 0.571947 0.0987776 1.24114 -3.32769 -0.531388 0.595633 0.0298621 
245 1 0.128203 0.572512 -0.00206042 0.77285 -3.29849 0.553297 0.142323 0.0338365 
247 1 0.189541 0.5654 0.0510773 0.778989 -3.28403 0.0448791 0.295266 -0.458845 
649 1 0.247709 0.557377 0.0965361 0.475059 -3.30743 0.407917 0.360582 0.128888 
251 1 0.260693 0.595003 0.044549 1.89977 -3.35458 0.060722 0.222886 0.437164 
646 1 0.201904 0.611006 0.096087 0.980481 -3.32727 -0.316319 -0.56258 -0.0827064 
249 1 0.195002 0.603504 -0.00200352 1.49884 -3.30875 0.156869 0.107689 0.130272 
216 1 0.305363 0.543287 0.0478901 2.32492 -3.30161 0.320621 0.816406 0.00861441 
255 1 0.373746 0.585997 0.0454901 0.713061 -3.32 -0.838289 -0.00476031 0.261869 
256 1 0.325058 0.635414 0.0441416 0.70965 -3.31882 -0.348222 -0.201301 0.146611 
653 1 0.319176 0.588435 0.0987104 1.64804 -3.35222 -0.340951 0.471239 -0.465071 
657 1 0.377894 0.631516 0.0961807 0.289007 -3.25889 -0.475476 -0.317335 0.228423 
214 1 0.364188 0.541583 -0.000555508 0.491264 -3.32453 -0.480907 0.0358765 0.146372 
253 1 0.309909 0.593918 -0.0110365 3.1362 -3.25902 0.621478 -0.478108 0.673523 
254 1 0.37431 0.631665 0.991828 1.00106 -3.3275 0.264575 -0.398094 0.321701 
259 1 0.432255 0.626544 0.0469468 0.539773 -3.31366 0.0783197 -0.35533 -0.188748 
224 1 0.48227 0.571899 0.0533614 1.25289 -3.2966 -0.231466 0.606008 -0.472918 
618 1 0.424904 0.583345 0.0987332 0.589431 -3.28054 0.381233 -0.238067 -0.277748 
622 1 0.488712 0.622385 0.100694 1.7572 -3.35898 -0.00974743 -0.272812 -0.164281 
227 1 0.593003 0.556154 0.0492488 0.395868 -3.34754 0.0151182 0.00791571 0.312112 
228 1 0.548418 0.606555 0.0484045 0.757677 -3.32918 -0.497859 0.21195 -0.0289104 
625 1 0.532331 0.568628 0.102764 1.22826 -3.27062 0.480467 -0.00748107 0.0251234 
626 1 0.602456 0.59749 0.099 0.65843 -3.29725 -0.10374 -0.0955479 -0.187066 
229 1 0.647204 0.549733 1.00184 1.70615 -3.28791 0.330746 -0.098009 -0.690048 
232 1 0.664232 0.587869 0.0462762 1.57584 -3.32483 -0.392664 0.49419 0.54029 
230 1 0.720857 0.584281 -0.00343094 0.558415 -3.31353 -0.155411 -0.152494 -0.208382 
271 1 0.731558 0.623266 0.0459641 0.985458 -3.29659 -0.218907 0.277877 0.82941 
269 1 0.67351 0.633047 0.00181703 1.42828 -3.30566 -0.349475 -0.0231075 -0.735988 
630 1 0.717115 0.58379 0.095038 0.960728 -3.29575 -0.0650641 -0.0249939 0.0579149 
669 1 0.662564 0.631697 0.102051 2.49356 -3.30243 0.444576 0.0229209 -0.619569 
236 1 0.776458 0.575008 0.050027 0.27991 -3.26352 0.264749 0.283066 -0.0130968 
234 1 0.832345 0.568339 1.00173 0.689338 -3.31627 0.549389 -0.249046 -0.474467 
275 1 0.846425 0.609202 0.0490965 0.475229 -3.3244 -0.486504 -0.326031 0.23193 
634 1 0.835196 0.56572 0.101867 1.23904 -3.29789 0.176745 0.563595 -0.805246 
673 1 0.788569 0.617996 0.0993753 1.05 -3.30747 -0.593846 -0.325889 -0.490838 
204 1 0.00975536 0.542382 0.0488492 1.11631 -3.35015 -0.455035 0.36479 0.0220031 
641 1 0.0108027 0.587451 0.0981481 0.705117 -3.34404 0.0496084 0.231953 -0.107039 
240 1 0.891556 0.559435 0.0471681 0.368381 -3.33051 -0.453085 -0.110751 0.163398 
279 1 0.953656 0.593365 0.0463565 0.89323 -3.3026 0.709549 -0.0403331 0.21908 
638 1 0.946113 0.552329 0.0947151 0.994059 -3.33329 0.33508 -0.202375 0.431835 
677 1 0.901149 0.602629 0.100578 0.664454 -3.28348 -0.562335 0.0340306 -0.353942 
244 1 0.02453 0.629301 0.048544 0.326572 -3.36717 0.0396619 -0.136938 0.0350351 
283 1 0.0917605 0.662973 0.050796 0.763505 -3.34604 -0.128538 0.208117 -0.118222 
284 1 0.0405189 0.714523 0.0497775 0.254433 -3.29208 0.170883 0.175346 -0.0993354 
681 1 0.0315675 0.673463 0.100547 0.495082 -3.35975 0.0940109 -0.000504464 -0.004993 
682 1 0.105743 0.710084 0.0970478 1.36994 -3.27285 -0.538466 -0.674495 -0.018153 
685 1 0.149985 0.65817 0.0965616 0.44031 -3.35148 -0.111901 -0.235634 0.0285055 
281 1 0.0320568 0.674499 1.0024 1.02453 -3.26834 -0.362944 -0.768543 -0.255018 
285 1 0.0952008 0.701979 1.00008 2.20018 -3.25504 0.671888 0.829831 -0.00382743 
252 1 0.20832 0.645644 0.0429465 1.69328 -3.2825 -0.422877 0.373795 0.306296 
287 1 0.157925 0.701443 0.0462743 0.723954 -3.32781 -0.0133367 -0.444147 0.251937 
689 1 0.213165 0.692248 0.0956525 0.354299 -3.35146 0.0543177 0.211986 -0.0307331 
650 1 0.266924 0.642836 0.0893039 2.08026 -3.30171 0.183345 -0.117997 0.555038 
289 1 0.213916 0.691216 -0.0014938 0.468243 -3.25729 -0.20406 0.220555 -0.055831 
246 1 0.14976 0.658846 -0.00244974 1.13786 -3.31261 -0.357906 -0.456405 0.250472 
291 1 0.267271 0.686458 0.0458857 1.00934 -3.26242 0.0708568 -0.381755 -0.0463086 
295 1 0.330691 0.716543 0.0438096 2.73453 -3.24877 0.574887 1.08432 0.346194 
260 1 0.382167 0.673931 0.0441768 0.348193 -3.25452 0.0953753 -0.267113 0.090457 
297 1 0.389349 0.718318 0.998883 1.06749 -3.28915 -0.329392 -0.0077967 -0.322175 
654 1 0.331048 0.679911 0.0996118 1.74471 -3.32215 -0.319178 -0.191456 -0.191913 
293 1 0.328482 0.681516 0.993261 1.27077 -3.30044 -0.41647 -0.501906 0.0816805 
264 1 0.443994 0.709104 0.0477661 0.506065 -3.24187 0.42768 -0.294949 0.40378 
263 1 0.49888 0.658727 0.0421084 1.32452 -3.29187 -0.324061 -0.0227705 0.770119 
658 1 0.390863 0.716208 0.0963014 0.986763 -3.30233 -0.485526 0.0203477 0.371897 
661 1 0.435727 0.667398 0.0949105 1.03851 -3.28057 0.711559 0.332058 0.505443 
662 1 0.505919 0.701211 0.0960501 0.462885 -3.32805 -0.579428 -0.607316 0.383215 
267 1 0.613352 0.639797 0.0468018 0.330092 -3.30724 0.0115717 0.0172206 0.139304 
268 1 0.561094 0.689883 0.0462669 0.561822 -3.28221 0.526719 0.290984 0.15607 
266 1 0.619724 0.682972 -0.000100589 0.910048 -3.31854 0.416661 -0.0521483 -0.309841 
666 1 0.621808 0.681636 0.0955239 1.1194 -3.1994 -0.594143 0.397281 -0.44654 
665 1 0.559597 0.649035 0.0951817 1.36536 -3.30859 -0.628006 0.0322 0.442253 
265 1 0.556615 0.651454 -0.00691697 1.13369 -3.30168 -0.286899 -0.199483 0.340152 
272 1 0.67902 0.672219 0.0488349 0.477267 -3.33101 0.242137 0.448043 -0.00253312 
270 1 0.740842 0.663123 2.13955e-05 1.3436 -3.24432 -0.58818 0.36529 -0.353492 
309 1 0.685732 0.715132 0.997416 0.234515 -3.35755 0.148961 -0.224598 0.104779 
311 1 0.746732 0.708695 0.04799 0.465738 -3.37068 -0.43523 -0.00521436 0.272546 
670 1 0.732856 0.667106 0.0988304 0.628023 -3.34796 0.23914 0.142505 -0.469917 
709 1 0.684266 0.716599 0.0977708 0.739393 -3.25568 0.74563 0.54684 -0.954689 
276 1 0.797377 0.661502 0.0468786 1.32991 -3.32665 -0.204896 -0.396295 0.633407 
315 1 0.86224 0.69364 0.0513401 0.922784 -3.26315 -0.886893 0.118423 -0.582438 
674 1 0.849569 0.649122 0.0998227 0.977635 -3.31745 0.465108 0.598054 0.0131902 
713 1 0.804464 0.700075 0.104264 1.95019 -3.31994 -0.610393 0.0521721 -0.850251 
278 1 0.967893 0.63501 1.00263 0.625752 -3.31444 0.187601 0.156103 -0.179754 
280 1 0.907707 0.641677 0.0480586 0.601917 -3.26098 0.228054 0.460601 0.0967951 
319 1 0.977829 0.681321 0.0515148 1.20966 -3.2617 -0.476853 -0.395884 -0.417434 
678 1 0.964147 0.637811 0.0953773 0.864564 -3.31293 0.326911 0.0666203 0.336025 
317 1 0.915106 0.683858 1.00189 0.848414 -3.33535 0.405561 0.272732 -0.0919635 