ITEM: TIMESTEP
14750
ITEM: NUMBER OF ATOMS
4000
ITEM: BOX BOUNDS pp pp pp
2.9228736514445104e+00 3.7577126348554920e+01
-3.3784181901936012e+00 4.3878418190192868e+01
-2.8106202632981275e-01 4.0781062026330360e+01
ITEM: ATOMS id type xs ys zs c_csym c_peratom fx fy fz 
405 1 0.0289602 0.0626648 0.095548 0.715956 -3.27118 0.545682 0.699014 0.540878 
7 1 0.0929359 0.0593503 0.0467971 1.53833 -3.26672 -0.628629 -0.861196 0.208056 
3 1 0.0245395 0.0238091 0.050249 1.25341 -3.25925 0.577711 -0.968591 -0.535947 
2 1 0.031641 0.0622568 0.999323 0.618497 -3.26056 0.550053 0.650377 -0.307608 
5 1 0.0824867 0.0145892 7.7156e-05 0.499728 -3.33141 0.226959 -0.0848783 0.453513 
12 1 0.150585 0.0935281 0.0506885 0.58027 -3.27883 0.426841 0.516843 -0.150403 
11 1 0.203976 0.0404604 0.0524436 1.0995 -3.21336 -0.723806 0.242492 -0.150941 
10 1 0.210344 0.0922288 -0.00494053 2.38751 -3.29357 -0.084338 -0.324702 0.694197 
9 1 0.152923 0.0520587 0.0018569 1.49896 -3.36215 -0.0908262 -0.362258 -0.288769 
409 1 0.142865 0.0484839 0.0976295 0.85303 -3.30733 -0.0882588 0.00058608 -0.189631 
410 1 0.204474 0.0865154 0.0976077 0.449596 -3.35842 0.374742 0.374869 0.114138 
16 1 0.263729 0.0850768 0.0499105 0.78255 -3.37617 0.0439277 0.00565947 0.103841 
15 1 0.310763 0.0342074 0.0532432 0.860296 -3.32523 0.28184 -0.426061 -0.227032 
413 1 0.25498 0.0368108 0.0983026 0.382548 -3.25999 0.373895 0.163136 0.497769 
14 1 0.325262 0.0763245 -0.00121127 0.760701 -3.32587 0.139495 0.227964 0.344546 
20 1 0.377145 0.0673123 0.0528348 1.08229 -3.31679 0.00588047 0.284927 -0.0564002 
19 1 0.422656 0.0174782 0.0512015 1.29458 -3.19381 0.402273 -0.475117 0.147862 
418 1 0.439935 0.057194 0.0931882 1.54597 -3.29266 -0.0778229 0.0274027 0.852601 
21 1 0.484392 0.00860309 1.00301 1.87843 -3.33613 0.652754 -0.575301 -0.130896 
17 1 0.370059 0.0292739 1.00405 2.47126 -3.26824 -0.260237 -0.883461 -0.18588 
18 1 0.440922 0.0540609 1.00565 2.14964 -3.20439 -0.0251823 0.549311 -0.761785 
24 1 0.50165 0.0514973 0.0493099 1.63943 -3.26044 0.0323076 -0.828683 -0.562015 
28 1 0.613964 0.0256233 0.0489352 1.07067 -3.34122 0.513722 0.389523 0.0199645 
63 1 0.574641 0.0772862 0.0462555 2.42755 -3.3466 -0.334525 0.343227 0.235759 
61 1 0.50797 0.0893551 -0.00682291 2.0339 -3.26984 0.307063 -0.541263 0.985207 
421 1 0.489225 0.00690274 0.0983844 0.541399 -3.36823 0.128185 0.227466 0.150649 
22 1 0.557062 0.0388097 -0.000931232 0.570479 -3.30935 -0.36211 -0.200098 -0.0260477 
32 1 0.72627 0.0103251 0.0469132 1.69209 -3.29802 0.577655 0.0518749 0.474192 
67 1 0.682482 0.0599616 0.050495 0.963814 -3.31594 -0.495529 0.287729 -0.18311 
469 1 0.740657 0.0571905 0.0969034 0.597261 -3.34046 0.24467 -0.178102 -0.0313475 
426 1 0.673812 0.0223374 0.101429 0.552938 -3.35358 -0.165944 -0.0693874 -0.0660792 
465 1 0.625134 0.0761241 0.100839 1.29178 -3.33472 -0.35988 -0.42825 -0.225803 
65 1 0.625408 0.0675619 -0.00616021 1.88166 -3.29201 0.380158 0.562492 0.677822 
36 1 0.799522 0.04717 0.051949 0.569403 -3.33577 -0.521265 -0.118686 -0.0341312 
35 1 0.850488 0.993429 0.0475715 1.48792 -3.28218 -0.461255 0.444624 0.422065 
434 1 0.856539 0.040996 0.101252 0.637685 -3.30766 -0.187057 -0.486295 0.0549726 
430 1 0.787022 0.00452852 0.0969277 0.862554 -3.3716 0.199877 0.398172 0.0415776 
34 1 0.855692 0.0385034 1.00456 0.703211 -3.2829 0.258418 -0.108096 -0.532724 
4 1 0.975229 0.0691741 0.0455127 0.62064 -3.23153 0.218303 0.660005 0.179307 
40 1 0.914081 0.0299039 0.0496305 0.659388 -3.2601 -0.0344956 0.132007 -0.0633792 
401 1 0.970235 0.0274517 0.0948214 0.555402 -3.24924 -0.484481 -0.4327 0.685899 
37 1 0.908301 0.989384 1.00422 1.29574 -3.24949 -0.496808 0.0936309 -0.708204 
6 1 0.0956323 0.10061 -0.000130974 0.698598 -3.32018 0.378781 0.23555 -0.507341 
8 1 0.0408718 0.105429 0.0453283 0.81236 -3.32914 -0.355207 0.432417 0.271236 
43 1 0.99222 0.158259 0.0480637 0.43847 -3.35998 0.0580971 -0.163177 -0.351564 
45 1 0.0515057 0.15182 -0.00410959 1.14758 -3.29285 -0.0839961 -0.47081 0.655254 
47 1 0.102187 0.147536 0.0508451 0.958374 -3.28911 -0.0398226 -0.495421 -0.352128 
406 1 0.0896159 0.100603 0.0981049 1.34974 -3.35236 0.589281 0.254763 0.095714 
446 1 0.108627 0.191115 0.0975187 0.408023 -3.37654 -0.047552 -0.181363 0.0976169 
52 1 0.167891 0.178022 0.0500954 1.47007 -3.21766 -0.396511 1.03338 -0.270574 
51 1 0.210674 0.132879 0.0488118 1.10799 -3.26685 0.630248 -0.699933 -0.0557635 
449 1 0.157769 0.140118 0.0987708 0.551614 -3.32485 -0.435486 -0.472054 0.398282 
55 1 0.332005 0.118891 0.0494308 0.35537 -3.34991 0.11972 -0.367626 -0.0141299 
56 1 0.280363 0.16402 0.0491768 0.88417 -3.27605 0.212127 0.563042 -0.389716 
453 1 0.272221 0.12903 0.0978881 0.93255 -3.31291 0.10872 -0.857137 0.293995 
53 1 0.274606 0.125826 0.999729 0.464608 -3.32167 0.367968 -0.278178 -0.0290588 
59 1 0.449201 0.0974893 0.0472811 0.74895 -3.27525 0.144351 0.328385 0.581072 
60 1 0.401759 0.152987 0.0479635 0.990599 -3.30719 -0.191379 -0.490155 -0.115421 
57 1 0.396481 0.107355 1.00131 0.572954 -3.33089 -0.759012 -0.262225 -0.257685 
58 1 0.462368 0.136535 0.000649871 1.1229 -3.25288 -0.185153 0.655057 -0.107948 
99 1 0.467842 0.183709 0.0446063 1.15618 -3.28404 -0.0824104 -0.548662 0.583979 
458 1 0.456079 0.141013 0.0962855 0.515312 -3.35585 0.30706 -0.175408 0.0822564 
64 1 0.516269 0.129005 0.0502393 1.09906 -3.32001 0.194166 -0.0921091 -0.110664 
103 1 0.586268 0.163652 0.0485023 0.335557 -3.29901 -0.245192 0.0676111 -0.366521 
101 1 0.529985 0.166655 0.0011237 2.43483 -3.31696 -0.136604 0.554402 -0.15109 
62 1 0.578295 0.119458 -0.0028548 0.577533 -3.35949 0.00725308 0.129098 0.19735 
68 1 0.636436 0.115499 0.0495736 0.706328 -3.2604 -0.667682 -0.331137 -0.243091 
72 1 0.699229 0.147258 0.0483818 0.517139 -3.26177 0.533748 0.627635 0.217102 
69 1 0.692947 0.104341 1.00463 1.61869 -3.31249 -0.0856927 -0.322706 -0.763804 
75 1 0.865901 0.0755503 0.0535081 3.91854 -3.13205 -0.639655 1.44145 -0.931774 
473 1 0.808804 0.0919949 0.101288 0.591124 -3.28681 -0.343826 -0.348192 -0.586052 
71 1 0.7522 0.0990837 0.0485474 0.820464 -3.3276 -0.0605139 -0.461194 0.180735 
76 1 0.814474 0.132282 0.0520021 0.42241 -3.28863 -0.0962099 -0.124775 -0.236217 
73 1 0.809665 0.0878612 0.00127996 0.489873 -3.33769 -0.550832 0.109704 0.22753 
79 1 0.924946 0.121723 0.045931 0.960718 -3.31288 0.530148 -0.143601 0.859518 
80 1 0.872725 0.168815 0.0497899 1.12358 -3.24055 0.824629 0.261077 0.424222 
48 1 0.0579618 0.196168 0.0427591 1.87549 -3.27265 -0.773518 -0.116595 0.674711 
42 1 0.996555 0.200071 0.999994 1.05363 -3.29495 0.0671069 0.422357 0.0816259 
83 1 1.00532 0.243648 0.0505125 0.97166 -3.26908 0.0389662 -0.276075 -0.508603 
485 1 0.0604554 0.241016 0.0977386 0.698972 -3.34036 -0.10036 -0.31831 0.163619 
85 1 0.0542948 0.241235 -0.00237543 1.9577 -3.3524 0.417414 -0.21975 -0.186657 
87 1 0.113914 0.233973 0.0464458 1.11357 -3.25962 0.00226235 -0.312285 0.0746028 
91 1 0.232398 0.211472 0.0490488 1.3639 -3.33962 0.198315 0.744684 -0.284217 
92 1 0.180262 0.261894 0.0461812 1.3712 -3.2398 0.813296 0.923131 -0.34368 
86 1 0.125165 0.271937 0.998577 0.467136 -3.33827 -0.0872679 0.287475 -0.110507 
489 1 0.172468 0.228563 0.094542 1.78394 -3.28598 0.328273 -0.869082 0.71289 
89 1 0.179871 0.220639 1.00023 1.0185 -3.33032 -0.455015 -0.0121723 -0.255146 
95 1 0.345048 0.200495 0.0500045 1.23027 -3.33719 0.4742 0.202809 -0.586518 
96 1 0.294963 0.250151 0.0474681 0.786417 -3.32776 0.193181 0.206937 -0.0253168 
93 1 0.293329 0.206375 0.997217 0.487824 -3.29891 0.000741565 0.276847 0.806347 
493 1 0.291118 0.213009 0.0963744 1.66052 -3.25251 -0.490958 -0.666695 0.124271 
94 1 0.355986 0.24431 -0.000703929 1.11414 -3.35475 0.201817 -0.485874 0.174285 
100 1 0.417872 0.234296 0.0468944 0.515107 -3.34528 -0.299226 0.0231814 0.414753 
139 1 0.485792 0.26508 0.0469574 0.468805 -3.26662 -0.392052 -0.33615 0.22947 
497 1 0.409998 0.189643 0.0977163 0.470755 -3.28831 0.0409248 0.234403 -0.161366 
97 1 0.405329 0.194373 0.000424098 1.87308 -3.2985 0.29502 -0.370329 0.0342042 
98 1 0.480443 0.221459 0.000880755 0.92818 -3.30839 -0.301553 0.34962 -0.638113 
104 1 0.535751 0.213025 0.0455118 0.62455 -3.32436 0.261553 0.285528 0.0950197 
108 1 0.600656 0.250317 0.0447573 0.620935 -3.32806 0.210027 -0.417522 0.474373 
502 1 0.590174 0.208969 0.0944438 0.494146 -3.32714 -0.0562814 -0.33332 0.185146 
102 1 0.547932 0.259962 -0.0026483 1.73009 -3.27585 -0.656158 -0.714395 0.129621 
105 1 0.593439 0.206575 -0.00546175 0.997867 -3.33089 0.113762 0.0621623 0.932847 
107 1 0.650161 0.195962 0.0456983 1.03768 -3.32434 0.226166 0.749085 -0.00294709 
509 1 0.713319 0.191099 0.101721 2.12267 -3.32124 -0.575402 0.211084 -0.746951 
112 1 0.715161 0.234241 0.0522436 0.567007 -3.38311 -0.0738863 -0.195104 -0.049474 
506 1 0.656115 0.240619 0.0984134 0.421856 -3.33863 0.111271 0.117705 -0.249908 
115 1 0.830607 0.215817 0.0572744 4.47834 -3.21863 0.103218 0.598988 -1.13842 
111 1 0.767287 0.183548 0.0474644 0.909222 -3.33482 -0.261431 -0.247275 0.400709 
116 1 0.780882 0.269706 0.0497429 0.459531 -3.26501 -0.101915 0.144839 0.113493 
114 1 0.833792 0.262719 0.998832 0.894282 -3.29576 0.226073 0.0263805 -0.206668 
517 1 0.836902 0.263225 0.0975096 0.485221 -3.29746 0.127864 0.150773 0.437186 
44 1 0.939285 0.207047 0.0461901 0.465249 -3.30791 -0.0510874 0.318296 -0.159737 
81 1 0.94742 0.250871 0.996287 0.574438 -3.39369 0.161388 -0.158835 0.055978 
119 1 0.889394 0.259958 0.0446359 2.29858 -3.35456 0.3908 -0.577755 0.270677 
117 1 0.880637 0.212821 0.997186 1.13487 -3.34128 0.664951 0.560637 0.106854 
478 1 0.890814 0.214594 0.0962814 1.9544 -3.25597 -0.639159 -0.41598 0.713277 
481 1 0.947508 0.248779 0.0993395 0.934418 -3.23125 0.149685 0.523389 -0.0247583 
88 1 0.0633949 0.28437 0.0500323 1.35709 -3.36746 0.0974929 0.025807 -0.0828591 
123 1 0.0113281 0.333198 0.0439955 1.49248 -3.33688 -0.148687 0.0547008 0.199289 
128 1 0.0749509 0.369068 0.0444033 1.62626 -3.24234 0.490247 0.726306 0.148861 
482 1 0.00639221 0.286947 0.0985498 1.38337 -3.24347 0.94373 0.59129 0.385344 
525 1 0.0689022 0.332735 0.0944783 3.37748 -3.26889 0.236644 -0.892945 -0.0500504 
82 1 0.00929329 0.288694 -0.00483731 0.941717 -3.34725 -0.135137 0.175546 0.264266 
129 1 0.191671 0.30634 1.00017 0.813033 -3.29828 -0.246098 -0.435026 -0.346602 
127 1 0.132297 0.316826 0.0466185 0.430377 -3.25126 -0.325112 -0.378104 0.477403 
132 1 0.19274 0.348485 0.0418219 2.3704 -3.23502 0.782212 0.780279 0.919323 
526 1 0.135785 0.361733 0.0959032 1.25599 -3.32807 0.378239 -0.319064 0.172944 
126 1 0.137477 0.358027 -0.00308354 0.796213 -3.3029 0.161628 0.634339 -0.14406 
131 1 0.247605 0.301457 0.0481741 1.09937 -3.34807 0.0282432 -0.197889 -0.107774 
136 1 0.318094 0.331407 0.0452659 1.01112 -3.31724 -0.364654 0.00815182 0.392713 
533 1 0.308775 0.289516 0.100507 0.813417 -3.31461 0.194484 0.152196 -0.311687 
130 1 0.255 0.343181 -0.00193205 0.806171 -3.29649 0.0909031 -0.303275 -0.0235407 
135 1 0.365637 0.285323 0.0461046 0.846895 -3.31873 -0.228457 -0.60942 0.461404 
140 1 0.432477 0.31261 0.0454566 1.34166 -3.24646 0.137509 0.745243 0.707679 
538 1 0.49044 0.305169 0.100247 0.690587 -3.30888 0.216257 0.140395 -0.159645 
577 1 0.447534 0.356052 0.0969016 1.812 -3.29628 -0.91739 0.139041 0.276265 
144 1 0.496044 0.345382 0.0480988 1.18928 -3.27296 0.45907 0.469195 -0.0861578 
534 1 0.37458 0.325569 0.0982926 0.553435 -3.33371 0.147879 -0.353408 -0.0680913 
137 1 0.431298 0.274865 0.000508726 1.25675 -3.24308 -0.856736 -0.548272 -0.607799 
134 1 0.37408 0.323929 -0.00196933 0.474845 -3.31122 -0.0449205 -0.308458 -0.0737057 
141 1 0.494233 0.3091 -0.00211984 0.988911 -3.27911 0.070966 -0.0312801 -0.0330247 
143 1 0.546094 0.295381 0.0498116 1.79259 -3.25715 0.980181 1.15189 -0.232843 
545 1 0.608749 0.292979 0.0969051 0.634693 -3.31762 -0.39244 -0.582385 0.396785 
148 1 0.618588 0.332483 0.0521235 0.861271 -3.26094 -0.657584 -0.0974074 -1.10642 
542 1 0.555551 0.339933 0.0970916 0.468751 -3.2753 -0.178169 -0.196836 0.140193 
147 1 0.668919 0.283161 0.0499645 0.316478 -3.37437 -0.244697 0.0562617 -0.0312412 
151 1 0.734895 0.31926 0.049141 1.31115 -3.19393 -1.20904 -0.130572 0.668434 
152 1 0.679589 0.366942 0.0522452 1.09284 -3.33478 0.0509645 0.607545 -0.334728 
150 1 0.73493 0.360891 1.0026 1.24371 -3.25153 -0.240998 0.676086 -0.734685 
549 1 0.670826 0.326023 0.0996729 0.3788 -3.26297 0.538861 0.12682 0.254076 
120 1 0.841838 0.306117 0.0460854 0.480006 -3.30709 0.165144 0.39822 0.346726 
153 1 0.784135 0.315177 1.00454 1.59362 -3.20307 0.324018 -0.312635 -1.37401 
155 1 0.789501 0.359581 0.0479659 0.98509 -3.26592 0.753068 0.0756675 0.498756 
157 1 0.849072 0.34864 0.996664 0.582928 -3.33284 0.0400473 0.610367 0.424221 
514 1 0.781949 0.31257 0.09942 0.448293 -3.32882 0.716213 0.351912 0.333473 
557 1 0.850168 0.34845 0.0954561 1.01492 -3.31145 -0.713578 0.0672047 0.0795495 
84 1 0.959709 0.288447 0.0504144 3.8783 -3.24662 -0.940743 0.903724 -0.715498 
159 1 0.90832 0.342775 0.0475762 0.883127 -3.34091 -0.0304655 -0.0441518 -0.445976 
121 1 0.958454 0.33874 0.994121 0.91853 -3.31897 0.222279 -0.0548186 0.338283 
518 1 0.895518 0.299144 0.0979684 0.641742 -3.32949 0.530693 0.145299 0.0659421 
118 1 0.900513 0.300974 0.995526 0.766798 -3.30248 -0.0100465 -0.0881839 0.445498 
122 1 0.0239616 0.375455 -0.00871351 1.56806 -3.33771 0.141242 0.0790933 0.41441 
522 1 0.0193077 0.377452 0.0943476 0.978482 -3.30986 0.0856451 0.358793 0.165639 
163 1 0.0306312 0.419244 0.0435566 0.661652 -3.27167 0.619293 0.238943 0.350831 
168 1 0.095181 0.452212 0.0473017 0.421759 -3.334 0.189984 -0.508325 0.264316 
565 1 0.0891057 0.41006 0.101728 0.79314 -3.3207 -0.325087 -0.154099 -0.422536 
167 1 0.147605 0.400403 0.047937 0.708211 -3.33978 -0.449686 0.37713 -0.130148 
172 1 0.212374 0.436117 0.0470662 0.611135 -3.32605 0.283421 0.136392 0.506044 
569 1 0.204646 0.390637 0.0960161 0.626975 -3.36787 0.278056 -0.0978286 0.15557 
566 1 0.155052 0.441581 0.10238 0.506996 -3.30427 0.224973 -0.257659 -0.536455 
171 1 0.26274 0.380751 0.0467291 0.744494 -3.34509 -0.015456 0.385093 0.329661 
176 1 0.329238 0.414699 0.0506589 0.583635 -3.26936 -0.0877529 -0.289789 -0.525608 
573 1 0.322758 0.37233 0.0985018 0.384991 -3.26524 0.0398649 0.1911 0.0172122 
570 1 0.269297 0.427517 0.0981405 1.24888 -3.31097 -0.22714 -0.538212 -0.147702 
175 1 0.385551 0.367139 0.0509253 1.12268 -3.33626 0.00235873 -0.269819 0.111092 
179 1 0.453027 0.399109 0.0454472 1.39813 -3.32511 -0.177078 -0.0497113 0.840664 
183 1 0.562874 0.382794 0.0511186 0.654782 -3.31225 0.38929 0.283813 -0.347916 
184 1 0.517941 0.436384 0.0445476 1.33743 -3.27303 -0.42568 -0.369613 0.628957 
189 1 0.685403 0.415627 0.996494 0.881551 -3.34661 0.261548 -0.44785 0.00431295 
187 1 0.631222 0.422075 0.0474658 0.963752 -3.31831 -0.234278 -0.595229 0.111622 
191 1 0.695682 0.456806 0.0449787 1.57763 -3.25521 -0.663128 -0.399182 0.214189 
186 1 0.632452 0.462194 0.997523 0.671487 -3.27535 0.34828 0.367585 -0.102593 
550 1 0.681457 0.414827 0.0973105 0.922299 -3.32834 0.207164 -0.130177 0.116409 
156 1 0.740537 0.40682 0.0476696 0.282753 -3.3286 -0.189464 0.0337545 0.08408 
154 1 0.793922 0.400199 0.996016 0.696193 -3.3375 0.580212 0.236293 0.170347 
160 1 0.854282 0.395735 0.0460012 0.615385 -3.36012 -0.264922 -0.183234 -0.140713 
195 1 0.801559 0.443288 0.047382 0.670407 -3.29918 -0.108475 0.092123 -0.356152 
197 1 0.864558 0.43937 0.992141 2.94611 -3.27142 -0.873918 -0.291311 0.687209 
124 1 0.968464 0.39042 0.0438342 3.91199 -3.22653 -0.578492 -1.33812 0.023404 
158 1 0.911163 0.388608 0.996108 0.373473 -3.32563 -0.212164 0.0206533 0.525134 
199 1 0.914586 0.433693 0.0489113 0.589287 -3.28129 -0.483726 -0.0106089 -0.0356287 
561 1 0.968031 0.427875 0.0958173 1.07893 -3.28491 0.232999 -0.411722 0.351159 
203 1 0.0470946 0.498114 0.0482998 0.829067 -3.31871 0.215867 0.271312 0.659556 
204 1 -0.00534568 0.549523 0.0545301 0.89334 -3.27942 0.757752 0.494653 -0.436957 
201 1 0.990969 0.509011 1.00302 0.781029 -3.26363 -0.250233 0.11499 -0.609319 
605 1 0.107161 0.490812 0.101903 0.440475 -3.27932 -0.700776 -0.407724 -0.451217 
164 1 0.979103 0.47053 0.0468064 0.963652 -3.1986 0.116171 -0.290006 0.810967 
602 1 0.0562687 0.542356 0.101851 0.372732 -3.30367 0.362635 -0.25655 -0.20782 
208 1 0.112549 0.534143 0.0521955 0.838354 -3.26411 -0.157904 -0.430951 -0.299353 
207 1 0.158749 0.485565 0.0492205 1.11931 -3.341 0.467548 -0.034684 0.108318 
212 1 0.227011 0.516369 0.0481549 0.919949 -3.325 0.271846 -0.287306 0.259253 
609 1 0.217892 0.475477 0.101395 1.12772 -3.28431 0.62527 -0.180982 -0.657751 
606 1 0.17103 0.521658 0.103096 1.21948 -3.22691 0.611432 0.550032 -0.639638 
211 1 0.282229 0.465788 0.0456554 0.924659 -3.34463 -0.220786 -0.0567743 -0.216369 
215 1 0.350176 0.497436 0.0508738 1.08671 -3.2841 -0.529339 -0.209141 -0.445991 
613 1 0.337596 0.454013 0.0938608 1.96535 -3.2277 0.352273 0.945844 0.820208 
213 1 0.287938 0.51313 0.00295551 2.14265 -3.34571 0.0248991 -0.328144 -0.191962 
180 1 0.399879 0.446639 0.0495185 0.53913 -3.34942 0.220291 0.0188357 0.0558706 
578 1 0.457312 0.443436 0.102084 1.26141 -3.29399 -0.188508 -0.861878 -1.19906 
219 1 0.466835 0.487128 0.0500361 1.1228 -3.33589 -0.46956 -0.530688 -0.150186 
621 1 0.479247 0.528556 0.0998795 2.29643 -3.2721 -1.02237 -0.332313 -0.0691876 
188 1 0.578531 0.467537 0.0493829 0.520553 -3.28018 0.0443696 0.404487 0.162571 
582 1 0.522035 0.476481 0.0980542 0.46756 -3.28107 0.0824501 -0.181635 -0.281521 
225 1 0.583104 0.51058 1.00138 0.954589 -3.27562 0.578776 0.240515 -0.232667 
223 1 0.528778 0.520462 0.0506774 0.579807 -3.25026 -0.0394134 -0.126965 -0.132561 
586 1 0.579678 0.515303 0.102791 1.36522 -3.27405 0.506678 -0.373336 -0.393561 
192 1 0.638545 0.502301 0.0490771 1.3693 -3.33331 0.316934 0.608535 0.228629 
190 1 0.693178 0.50198 0.999349 0.751379 -3.30188 0.547727 0.0536701 0.312996 
231 1 0.704706 0.54481 0.0503601 0.734346 -3.33958 -0.566526 -0.359468 -0.147107 
229 1 0.643113 0.553618 1.00381 1.74704 -3.2983 0.303768 -0.7599 -0.39518 
629 1 0.641235 0.549328 0.100419 0.61564 -3.36705 0.395889 0.318557 -0.0236494 
196 1 0.748265 0.493882 0.0506573 1.03512 -3.2173 0.512682 0.5253 -0.126837 
194 1 0.804298 0.492253 1.00432 2.8604 -3.27033 0.987086 -0.508555 -0.409732 
235 1 0.814158 0.534015 0.0548006 1.28596 -3.29926 0.238595 0.015507 -0.664741 
233 1 0.762059 0.537681 0.00133417 1.08355 -3.31575 -0.780914 0.423155 -0.0161417 
200 1 0.861159 0.48226 0.0514621 0.736512 -3.34446 0.388637 0.28246 -0.259594 
198 1 0.919307 0.476872 1.00373 1.92933 -3.30736 0.207086 0.614144 -0.508562 
239 1 0.930233 0.520514 0.0527351 0.845463 -3.28 -0.46958 -0.626852 -0.110085 
237 1 0.873943 0.529626 0.99951 1.27807 -3.26764 -0.0502412 -1.01293 0.0375551 
243 1 0.0666925 0.58183 0.054549 0.771718 -3.33139 -0.225669 0.339083 -0.517273 
241 1 0.00956748 0.590466 1.0022 0.552808 -3.36407 -0.187455 -0.101278 0.268564 
244 1 0.0194496 0.630362 0.0538516 1.11831 -3.2883 0.0668117 -0.0616442 -0.4555 
642 1 0.0757621 0.627534 0.100011 0.351929 -3.32987 0.150131 -0.469544 0.398682 
641 1 0.00344682 0.592536 0.102936 1.18937 -3.26392 0.935275 -0.0893035 -0.318977 
247 1 0.178247 0.561775 0.0478362 1.93683 -3.31979 0.244435 0.722072 -0.0607921 
248 1 0.133669 0.617484 0.0533087 0.996667 -3.32951 -0.0217246 -0.279439 -0.68212 
645 1 0.126931 0.573631 0.0986791 0.617679 -3.28619 -0.15118 0.213381 0.383944 
649 1 0.234894 0.558569 0.0967257 0.944746 -3.33434 -0.0570238 0.145874 0.396283 
251 1 0.242919 0.603641 0.0489275 1.37304 -3.31815 0.0818677 -0.530367 0.239314 
216 1 0.293396 0.552039 0.055398 2.12873 -3.24262 -0.208599 -0.157889 -0.652559 
255 1 0.354765 0.582485 0.0477377 1.47868 -3.25324 0.862405 0.168029 0.202583 
220 1 0.40556 0.535061 0.053035 2.7147 -3.21857 1.10186 0.275822 -0.635258 
259 1 0.421936 0.615116 0.0459167 1.9222 -3.30226 0.398455 0.752257 0.392282 
224 1 0.473418 0.566979 0.0477056 1.06637 -3.33938 0.312628 -0.138341 0.273172 
261 1 0.484668 0.607522 1.00076 1.02422 -3.21746 -0.0621047 0.294606 -0.120938 
227 1 0.590036 0.554876 0.049636 0.708923 -3.29963 -0.0453417 0.274793 0.450952 
228 1 0.537251 0.602031 0.0484747 0.886992 -3.37841 0.37792 0.295917 0.367208 
226 1 0.597079 0.600062 -0.000748498 0.584386 -3.30509 -0.0410925 0.0618546 0.215408 
222 1 0.536292 0.556954 1.00036 1.52059 -3.26081 -0.687215 0.458535 0.1631 
267 1 0.600061 0.642165 0.0503243 0.441986 -3.35654 -0.0969675 0.165737 0.140275 
232 1 0.649764 0.595611 0.0530248 0.628886 -3.33767 0.0198827 -0.227695 0.232224 
230 1 0.7032 0.588225 0.00223706 1.01744 -3.30133 0.555538 0.0649958 -0.386078 
271 1 0.714292 0.631624 0.0531323 0.808831 -3.28371 0.175858 0.0747194 -0.307468 
269 1 0.65737 0.63805 1.00358 0.780951 -3.28232 0.0968658 -0.282828 -0.387243 
236 1 0.759221 0.585536 0.0482347 2.88101 -3.26174 0.885996 -0.350697 -0.0290102 
234 1 0.825306 0.573454 0.00121462 0.663391 -3.28448 -0.424231 0.301177 -0.288242 
275 1 0.829003 0.614696 0.0483951 1.01373 -3.31156 0.0840851 0.267552 0.402519 
273 1 0.774172 0.623553 -0.00333938 1.06751 -3.3696 -0.173817 -0.0466533 0.149649 
240 1 0.882182 0.567556 0.0477031 0.745762 -3.27987 -0.0611343 0.0586255 0.828017 
238 1 0.942266 0.556326 0.00117329 0.910019 -3.31836 -0.0555622 0.629905 -0.142906 
277 1 0.891738 0.608578 0.00329782 0.843736 -3.31599 -0.0245958 0.0384255 -0.734791 
279 1 0.947895 0.603764 0.0506394 1.13046 -3.30352 0.379097 -0.546391 -0.170217 
283 1 0.084379 0.664808 0.0508959 0.564354 -3.32137 -0.151181 0.215949 -0.328224 
284 1 0.0404987 0.717166 0.0460379 3.06668 -3.2963 -0.656222 -0.154545 0.504119 
681 1 0.0274524 0.674392 0.102621 0.610281 -3.23101 -0.154421 0.41016 -0.789183 
682 1 0.0888151 0.710247 0.0989016 0.737954 -3.28972 0.11104 -0.34894 0.0314195 
252 1 0.196926 0.653158 0.0514703 0.756604 -3.3045 0.149078 -0.146326 -0.59795 
287 1 0.142999 0.700962 0.0480289 0.953187 -3.32599 0.321064 0.231399 -0.0787402 
689 1 0.209539 0.694147 0.0992669 0.860444 -3.29179 -0.822881 -0.0530442 0.0561826 
685 1 0.146919 0.660245 0.0995979 1.31689 -3.30737 -0.821637 0.17514 0.371554 
256 1 0.312844 0.631294 0.0491203 0.881386 -3.31979 -0.244174 0.538573 -0.0763108 
291 1 0.262528 0.685281 0.0488611 0.483844 -3.33035 0.137834 -0.158598 0.1122 
295 1 0.325631 0.722657 0.0510618 0.515021 -3.32959 -0.0845686 -0.316697 -0.106753 
650 1 0.2573 0.642534 0.0982301 0.409682 -3.2936 0.0261562 0.339857 -0.094618 
260 1 0.377005 0.669699 0.0467421 0.586828 -3.34079 0.255997 -0.197724 0.196742 
297 1 0.384546 0.713467 0.00442929 0.930821 -3.31651 -0.177763 0.00754958 -0.512269 
264 1 0.439551 0.70778 0.0519935 0.65348 -3.30964 0.233409 -0.273759 -0.355783 
258 1 0.441307 0.66332 -0.000325938 2.45588 -3.2792 -0.862589 0.0468844 0.0373993 
263 1 0.485562 0.657096 0.0500207 1.07996 -3.34147 0.710706 -0.04703 0.198693 
658 1 0.381413 0.714609 0.0975731 0.219249 -3.29788 0.0260801 -0.290009 0.209938 
268 1 0.557449 0.694073 0.0511611 1.00612 -3.33186 -0.653017 -0.180421 -0.241593 
266 1 0.608831 0.684958 1.00197 0.674523 -3.30296 -0.00498263 0.172745 -0.0879352 
705 1 0.560305 0.737802 0.098322 0.369823 -3.30867 -0.298114 0.198076 0.0376598 
272 1 0.667089 0.679454 0.0494679 0.681244 -3.31938 -0.45294 0.614347 0.128034 
270 1 0.720558 0.671724 -0.00108543 0.442338 -3.34666 0.329517 0.211554 0.00767288 
307 1 0.61748 0.733956 0.0523806 0.601914 -3.32611 0.182656 -0.270802 -0.297008 
309 1 0.671543 0.727996 0.996662 1.68299 -3.31081 -0.0914999 -0.752755 0.688127 
311 1 0.730711 0.71709 0.0479452 0.183915 -3.32615 -0.466561 -0.18076 0.15299 
666 1 0.607506 0.688708 0.101808 0.384309 -3.32739 0.513231 -0.000739133 -0.22775 
670 1 0.719907 0.679011 0.0977222 1.91711 -3.30681 0.181423 -0.335934 0.462918 
276 1 0.780614 0.665503 0.0496726 0.40717 -3.33155 -0.3694 -0.199607 0.0328906 
315 1 0.845852 0.694796 0.0496241 0.869572 -3.2426 0.106856 0.838406 0.620886 
674 1 0.836577 0.656521 0.103068 0.419042 -3.36385 0.139599 -0.196987 -0.0587108 
278 1 0.960299 0.644507 0.00233219 1.22014 -3.27604 -0.609908 -0.653254 -0.254661 
280 1 0.898946 0.648428 0.0520089 0.31323 -3.28806 -0.0611823 0.433644 -0.124077 
319 1 0.974874 0.676738 0.05387 3.27043 -3.2698 -0.62464 0.755118 -0.143954 
678 1 0.959028 0.640746 0.102243 0.458468 -3.22904 0.0366076 0.403724 0.00222144 
317 1 0.906579 0.692343 0.00173813 1.1293 -3.24225 -0.151422 -0.785154 -0.0472075 
318 1 0.975994 0.720603 1.00477 1.03342 -3.29999 -0.190434 0.233017 -0.209356 
288 1 0.0979316 0.7536 0.0521999 1.32644 -3.26947 -0.561795 0.01482 -0.370431 
323 1 0.0465371 0.799164 0.0551042 1.20663 -3.31827 -0.358049 -0.0213688 -0.43347 
721 1 0.0353519 0.756884 0.104625 0.929225 -3.32977 0.0897601 0.0211659 -0.261859 
292 1 0.209467 0.734652 0.041943 3.01391 -3.21665 -0.0580284 0.322686 1.41768 
327 1 0.160211 0.78486 0.0496855 0.38001 -3.29791 0.372759 0.25603 -0.0083276 
686 1 0.151606 0.743276 0.0976445 0.775528 -3.28913 0.427236 -0.115416 0.301181 
331 1 0.223753 0.824032 0.0527737 1.93821 -3.27644 -0.312747 -0.992244 -0.425241 
690 1 0.214775 0.775618 0.0999521 0.672063 -3.30551 0.142595 0.0564419 -0.0139738 
296 1 0.270197 0.769106 0.0529512 2.1326 -3.34612 0.606949 0.540375 -0.296432 
294 1 0.333118 0.764435 1.00076 0.553822 -3.30442 0.278391 -0.169626 0.358789 
300 1 0.341234 0.806234 0.0483891 0.795699 -3.36257 -0.729384 0.174812 0.272743 
333 1 0.282454 0.811796 -0.00205995 0.795853 -3.30317 0.0286311 0.355312 0.683074 
694 1 0.276721 0.812451 0.100612 0.744904 -3.35345 0.515036 0.111859 -0.162162 
299 1 0.392043 0.758321 0.0498805 0.534699 -3.26059 -0.0589573 0.0282753 -0.433121 
304 1 0.453433 0.796969 0.0509934 0.898942 -3.33571 -0.394225 -0.223005 -0.0104819 
698 1 0.392354 0.79914 0.100223 0.585698 -3.26754 0.664647 0.632725 0.0602595 
701 1 0.442433 0.749137 0.0986573 0.496367 -3.30154 0.60442 0.45093 0.277634 
305 1 0.565035 0.737082 0.00170711 1.00266 -3.29851 -0.571487 -0.0571294 -0.0722233 
303 1 0.502085 0.743242 0.0464691 0.877396 -3.37309 0.149745 0.178518 0.199146 
308 1 0.564147 0.785343 0.0497026 0.59292 -3.3288 0.144298 -0.455114 -0.178986 
302 1 0.507499 0.790787 1.00311 0.804775 -3.24948 0.190333 -0.461477 0.0433227 
702 1 0.507537 0.785333 0.0971405 1.00584 -3.30922 -0.183196 0.306331 0.230854 
745 1 0.567072 0.825355 0.0968428 1.05357 -3.34996 0.000400555 0.234363 0.472828 
312 1 0.679244 0.770294 0.0471506 0.727488 -3.26323 -0.257439 -0.704354 0.505559 
306 1 0.62125 0.776911 1.00033 0.57776 -3.32589 -0.126208 0.152667 -0.0937979 
347 1 0.632302 0.820434 0.0522541 1.42032 -3.33047 -0.591801 -0.282173 -0.345064 
349 1 0.686618 0.809189 1.00098 0.67348 -3.23061 0.0394349 0.141602 -0.0375122 
310 1 0.737682 0.756048 -0.00246218 0.632396 -3.23451 0.0734608 0.589239 0.150297 
351 1 0.744134 0.797747 0.045033 1.36023 -3.28234 0.628429 0.600255 0.530297 
316 1 0.793647 0.748321 0.0467509 0.693832 -3.29743 0.365771 0.133986 0.652447 
353 1 0.804849 0.790703 -0.00149583 0.335227 -3.36378 -0.0885892 0.148837 0.136078 
314 1 0.849083 0.73956 0.00269831 1.18992 -3.30835 0.695221 -0.0810248 -0.347976 
710 1 0.737914 0.761764 0.0974528 1.20051 -3.29776 -0.319658 -0.524009 0.0444626 
753 1 0.805007 0.788755 0.099485 0.295101 -3.26392 0.095966 -0.176564 0.300828 
355 1 0.866045 0.777147 0.0527225 1.13745 -3.31006 -0.274375 0.0878886 -0.267782 
320 1 0.914086 0.723552 0.0536395 2.41696 -3.25868 0.327044 0.860417 0.0245901 
359 1 0.983798 0.7643 0.0503752 0.931381 -3.34015 -0.153489 -0.343709 0.197894 
757 1 0.922811 0.771879 0.0984778 1.08949 -3.30418 0.0708944 -0.419769 0.532394 
328 1 0.10775 0.833214 0.0554513 1.03297 -3.34575 0.150617 0.0841617 -0.487974 
363 1 0.0603917 0.883274 0.0464449 0.820954 -3.35634 -0.478652 -0.300787 0.166773 
722 1 0.0461647 0.843795 0.100835 1.35346 -3.31219 0.151335 -0.273719 -0.140364 
332 1 0.173209 0.868261 0.0489516 0.392903 -3.27108 -0.208804 0.130927 0.268091 
730 1 0.178546 0.913575 0.10105 0.836854 -3.33888 0.0107177 -0.36456 -0.0467611 
369 1 0.184672 0.911167 0.995845 0.917432 -3.31126 -0.249775 0.327908 0.591795 
330 1 0.231361 0.86215 -0.00225183 0.577841 -3.30037 0.127407 -0.111433 0.493423 
729 1 0.16579 0.823701 0.103771 0.794662 -3.31437 -0.229378 0.217938 -0.205175 
336 1 0.23383 0.90384 0.0505762 0.573061 -3.2757 -0.0961113 -0.285634 -0.0251937 
335 1 0.285747 0.854713 0.0501944 0.561042 -3.31862 0.274782 0.100259 -0.28574 
340 1 0.347079 0.895258 0.0456861 0.667364 -3.24046 0.17317 -0.355183 0.746852 
334 1 0.293404 0.896388 -0.00163698 0.60999 -3.25397 0.0246994 0.226318 0.0430503 
734 1 0.291961 0.897903 0.0961273 1.12103 -3.31149 -0.351093 0.390126 0.601359 
737 1 0.340475 0.855585 0.0971477 1.98642 -3.2994 0.532407 -0.75382 0.221877 
339 1 0.398992 0.845388 0.0479653 0.436449 -3.30542 -0.00688546 0.183386 0.328063 
344 1 0.463696 0.887846 0.0493112 1.20836 -3.28554 -0.332952 -0.570519 0.159118 
738 1 0.407431 0.893537 0.0966109 1.75564 -3.33849 -0.278538 -0.64894 0.269834 
741 1 0.450144 0.841992 0.0970285 2.08089 -3.33713 0.427004 -0.270647 0.461234 
338 1 0.402877 0.887124 1.00094 0.955913 -3.29801 0.839621 0.456457 -0.235511 
341 1 0.458093 0.841335 1.00258 0.645791 -3.29938 -0.089489 -0.0285336 -0.417452 
343 1 0.511794 0.836526 0.0476206 1.05268 -3.25095 0.0605816 -0.291448 0.886167 
348 1 0.575685 0.869596 0.0495443 0.874512 -3.31433 0.385144 0.135917 0.545985 
383 1 0.526882 0.920492 0.0478134 1.44504 -3.28838 0.406027 -0.294104 0.900771 
342 1 0.521711 0.876613 0.00130554 0.69613 -3.28452 -0.363959 0.229592 -0.594779 
385 1 0.590412 0.902975 -0.00543988 1.73466 -3.23555 -0.0348549 0.880922 0.798624 
352 1 0.6962 0.852717 0.0529814 1.58826 -3.26589 0.167273 -0.614117 0.0757883 
389 1 0.704459 0.887522 1.00432 1.6838 -3.32788 -0.0618774 0.280615 -0.672791 
387 1 0.644953 0.899253 0.0512132 0.468991 -3.34697 -0.00814817 -0.254774 0.0234823 
346 1 0.634065 0.855111 -0.00390897 1.74835 -3.29935 0.696697 0.321825 0.395865 
746 1 0.633126 0.857862 0.103293 0.879967 -3.26045 0.217579 0.912005 -0.528946 
789 1 0.705671 0.888561 0.10326 0.40687 -3.32386 -0.188638 0.378916 -0.107568 