ITEM: TIMESTEP
13500
ITEM: NUMBER OF ATOMS
4000
ITEM: BOX BOUNDS pp pp pp
2.6688102152486861e+00 3.7831189784750741e+01
-2.7623600255790102e+00 4.3262360025578189e+01
-5.9600903957317597e-01 4.1096009039573438e+01
ITEM: ATOMS id type xs ys zs c_csym c_peratom fx fy fz 
405 1 0.0568475 0.0492033 0.103237 1.21486 -3.25551 -0.225546 0.278551 -0.685234 
7 1 0.109932 0.0418602 0.0533954 1.01409 -3.36008 -0.110173 0.0484523 -0.513777 
3 1 0.0402357 0.00696371 0.0501197 6.72111 -3.33589 0.101293 0.0975681 -0.0682951 
6 1 0.111567 0.0838675 -0.00258203 1.30779 -3.28941 0.645202 -0.0148699 0.391746 
2 1 0.0522835 0.0450652 0.994974 6.23232 -3.22131 -0.514523 0.0640632 0.779822 
12 1 0.170615 0.0819472 0.0523739 0.558052 -3.2918 0.00275758 -0.465659 -0.261262 
11 1 0.221857 0.0289676 0.0506886 0.285008 -3.33417 0.166928 0.304853 -0.225534 
10 1 0.224422 0.0721346 0.00544298 1.13947 -3.34003 0.415065 0.0194607 -0.278916 
9 1 0.16231 0.0335543 0.996338 1.48301 -3.31995 -0.180215 0.209937 0.568909 
16 1 0.289876 0.0699853 0.0535819 1.30886 -3.31496 -0.478608 -0.746693 -0.357869 
15 1 0.336042 0.017024 0.0541599 0.599252 -3.35232 -0.263816 0.269078 -0.816216 
413 1 0.278764 0.0236419 0.101585 0.639696 -3.34304 0.0767278 0.398088 -0.177497 
14 1 0.344086 0.0615874 0.00223021 0.550543 -3.32344 -0.801421 -0.255597 0.0979529 
20 1 0.392285 0.0578602 0.0526601 1.85126 -3.26277 0.163358 -0.143543 -0.364507 
19 1 0.444292 0.00556262 0.0467339 1.24472 -3.24178 0.844284 0.460774 0.612353 
418 1 0.450527 0.0538254 0.0911091 3.23059 -3.244 0.987325 -0.78485 0.724841 
21 1 0.50099 1.00368 1.00001 2.21253 -3.21505 0.856841 -0.814889 0.483932 
17 1 0.394261 0.0118387 0.00315589 0.570952 -3.30697 -0.671673 -0.0546388 -0.417729 
24 1 0.513146 0.0436353 0.047409 0.685611 -3.32719 0.34314 0.238475 0.410626 
28 1 0.629045 0.0312401 0.0517388 0.749461 -3.32655 -0.278988 0.290813 -0.533285 
23 1 0.565123 0.996125 0.0520081 0.906437 -3.27346 -0.0227874 -0.019329 -0.99817 
63 1 0.577111 0.0855717 0.0478146 1.00742 -3.30521 -0.439793 -0.653198 0.687719 
61 1 0.516993 0.0896953 0.00244151 0.759739 -3.31596 0.476693 0.0243633 -0.295732 
32 1 0.74261 0.0202681 0.0481406 0.412986 -3.34414 -0.057219 -0.254746 0.172074 
67 1 0.696018 0.0682632 0.050734 0.699325 -3.27926 -0.286454 -0.184007 -0.118002 
469 1 0.751886 0.0610046 0.0981523 1.74819 -3.30501 -0.471374 0.427816 0.146203 
426 1 0.681389 0.0240384 0.0981221 0.488055 -3.2748 0.231815 -0.106168 -0.225235 
26 1 0.686585 0.0278498 0.999525 0.796681 -3.31936 -0.24278 -0.169145 0.0787183 
30 1 0.750892 0.0648788 1.00256 1.38288 -3.25961 -0.362884 -0.486254 -0.453265 
36 1 0.805695 0.0577425 0.0473311 0.829597 -3.29351 0.109399 0.0885564 -0.16049 
35 1 0.857423 0.00646847 0.0443801 1.89119 -3.32935 -0.18744 0.360868 0.558984 
434 1 0.857903 0.0570336 0.0928392 6.80572 -3.31739 0.528841 0.123653 0.339217 
430 1 0.799836 0.0162547 0.0977321 0.940734 -3.24755 -0.228017 -0.226432 -0.0612319 
4 1 0.99713 0.0585727 0.0477626 5.97591 -3.25104 0.103972 -0.503221 0.571194 
40 1 0.918937 0.0501937 0.0396704 8.52109 -3.22165 -0.846932 -0.0558476 -0.489054 
437 1 0.908396 0.00635714 0.0965448 5.27748 -3.35163 0.109159 0.0199963 0.0186978 
8 1 0.064347 0.0920348 0.049908 0.90556 -3.35746 -0.216864 0.118958 0.319268 
43 1 0.00989861 0.145973 0.0516381 1.02855 -3.32613 0.27188 -0.628723 0.178881 
45 1 0.0671022 0.135956 0.00251632 0.370574 -3.31666 -0.33605 -0.0274916 0.111692 
47 1 0.128998 0.130606 0.052756 1.78014 -3.21419 -1.28955 -0.077606 -0.23305 
46 1 0.129112 0.170797 0.00246044 1.24866 -3.28083 0.00396967 0.685266 -0.107356 
445 1 0.064567 0.135601 0.100903 0.923845 -3.36504 0.244501 0.475761 -0.38932 
446 1 0.127047 0.174954 0.100285 0.598691 -3.38074 0.167452 0.13318 -0.125023 
52 1 0.18494 0.167517 0.0476671 0.471879 -3.28413 0.568514 0.558644 0.0720597 
51 1 0.23373 0.118416 0.0491476 0.578666 -3.29626 0.0256522 0.144081 -0.0052015 
450 1 0.238162 0.162196 0.0988658 0.482253 -3.3068 0.485497 0.423031 -0.33247 
449 1 0.178889 0.127364 0.100535 0.272339 -3.237 0.0980879 -0.222801 0.143632 
49 1 0.176972 0.122687 0.0011982 0.678696 -3.32716 0.256683 -0.0537869 -0.303046 
55 1 0.347806 0.107995 0.0545216 1.38339 -3.27498 0.331557 0.199515 -0.577223 
56 1 0.29233 0.159271 0.0423171 3.01998 -3.31899 0.479327 0.439191 0.625663 
453 1 0.287301 0.11164 0.100022 0.741925 -3.25327 0.634995 0.299261 -0.0365952 
454 1 0.350126 0.150884 0.096372 1.43452 -3.34644 0.22272 0.456524 0.0841347 
53 1 0.29287 0.112078 0.00582383 1.28803 -3.30308 -0.151362 -0.266381 -0.735133 
59 1 0.458824 0.0950342 0.0497134 0.930807 -3.25307 0.337678 0.743233 -0.118707 
60 1 0.419803 0.148177 0.0557528 4.00351 -3.28218 -1.00384 -0.220279 -0.869239 
457 1 0.405174 0.102652 0.100547 0.997887 -3.35049 0.128404 0.162329 0.157466 
57 1 0.406443 0.0966177 0.00185371 1.15132 -3.28894 -0.129327 0.673354 0.125933 
58 1 0.469853 0.139014 0.998204 0.94674 -3.3175 -0.183755 -0.0276386 0.405735 
64 1 0.523647 0.136221 0.0497776 0.748187 -3.31764 -0.128408 -0.115608 -0.0506906 
103 1 0.594285 0.165798 0.0496268 1.98936 -3.27267 -0.311636 0.816818 -0.0783698 
101 1 0.531529 0.174791 0.999482 0.621106 -3.35482 0.221372 0.192699 -0.120089 
62 1 0.584886 0.126276 0.00519924 1.08685 -3.24101 -0.0564054 0.127171 -1.15689 
68 1 0.645899 0.115705 0.0505361 1.55041 -3.25981 -0.396893 0.539633 -0.201703 
505 1 0.649229 0.164859 0.0941461 1.53757 -3.31597 0.379107 -0.259028 0.250194 
72 1 0.707672 0.157545 0.0462813 1.2717 -3.29372 -0.361559 -0.103132 0.242674 
466 1 0.699036 0.110452 0.0945588 1.82161 -3.2777 0.118481 0.423916 0.89059 
66 1 0.651113 0.164977 0.00135132 1.16253 -3.30954 -0.678895 -0.537543 -0.248424 
75 1 0.870939 0.0986693 0.0361561 6.69279 -3.22618 -0.72794 -0.229833 0.257263 
473 1 0.804226 0.108335 0.0972803 7.38254 -3.19942 0.974677 -0.0129509 0.694805 
71 1 0.759052 0.112304 0.0519684 2.65352 -3.20443 -0.656455 -0.230779 -0.926918 
470 1 0.756755 0.158803 0.0998262 6.48292 -3.32344 0.151642 -0.18983 -0.111459 
76 1 0.818963 0.150392 0.0444713 8.41722 -3.28725 0.168712 -0.550558 -0.287561 
402 1 0.00315238 0.0970502 0.103084 1.20852 -3.26286 0.315678 0.597959 -0.520961 
79 1 0.945819 0.109969 0.0559475 8.19501 -3.28174 0.387001 -0.219861 -0.359498 
80 1 0.896934 0.156326 0.0544996 7.61857 -3.27125 -0.103798 0.720857 -0.216651 
41 1 0.00446289 0.0955191 0.00251893 6.77705 -3.27724 -0.252729 0.842645 -0.326327 
78 1 0.952189 0.149146 0.00366121 6.79571 -3.31869 0.180635 -0.00894804 0.0320088 
48 1 0.0736798 0.182695 0.0496471 0.895404 -3.33575 0.101948 -0.521962 0.457641 
42 1 0.0148326 0.186214 1.00167 0.80403 -3.2344 0.0361742 -0.488803 -0.0809454 
83 1 0.0231293 0.229963 0.0530186 0.570315 -3.29545 -0.310708 -0.0948419 0.123939 
88 1 0.0876469 0.263721 0.0468212 1.80216 -3.32108 -0.204411 0.473851 0.364014 
485 1 0.0803715 0.223556 0.0988386 0.485845 -3.32174 -0.287435 0.0891356 -0.081014 
87 1 0.142202 0.220182 0.0479393 2.36091 -3.31614 -0.597095 -0.406651 0.0951739 
91 1 0.245656 0.209782 0.0461913 0.585593 -3.35315 0.0279153 -0.538248 -0.0583665 
92 1 0.20137 0.257395 0.0469415 0.890543 -3.27559 -0.536485 0.0977694 -0.0902429 
86 1 0.138888 0.258946 -0.00403992 1.96844 -3.26608 0.205599 0.47029 0.603619 
489 1 0.192907 0.21295 0.0964184 0.58443 -3.38616 0.00622505 0.0803883 0.39086 
486 1 0.140615 0.263168 0.0999505 0.537491 -3.31501 0.118499 0.123397 -0.631231 
95 1 0.36688 0.196363 0.0464015 2.29826 -3.30875 -0.804899 -0.582381 0.243643 
96 1 0.311204 0.242033 0.0463741 0.984639 -3.31548 2.26034e-05 0.169859 0.333422 
93 1 0.306037 0.204427 0.994805 1.16846 -3.21724 -0.39861 -1.35464 0.61528 
99 1 0.471875 0.191109 0.0528559 3.65212 -3.29576 0.232554 -0.415016 -0.0170892 
100 1 0.420399 0.235428 0.0459641 1.74154 -3.24613 0.698183 -0.0942658 0.285514 
139 1 0.48709 0.270154 0.0488586 0.554521 -3.33413 0.23007 -0.0989535 0.277105 
104 1 0.541419 0.218231 0.0476761 0.696281 -3.3139 -0.231148 -0.120219 0.216027 
108 1 0.603006 0.251537 0.048845 2.37786 -3.22929 0.184156 1.05756 -0.072252 
502 1 0.602258 0.213894 0.0976509 1.11647 -3.27494 -0.553825 -0.07802 0.0764033 
541 1 0.546629 0.26374 0.0976439 0.376478 -3.29998 -0.00116365 0.204126 -0.364923 
102 1 0.545963 0.261117 0.999502 0.566538 -3.29086 -0.240005 0.12483 -0.1344 
107 1 0.656773 0.209595 0.0485392 1.11621 -3.31002 0.255038 -0.15599 -0.206945 
509 1 0.710165 0.209805 0.103049 7.28706 -3.24837 -0.109886 -0.472388 -0.464796 
112 1 0.721225 0.242974 0.0409977 7.64845 -3.31057 -0.606943 0.1545 -0.183272 
506 1 0.660592 0.257459 0.0974051 6.98289 -3.31006 -0.0416867 -0.064947 0.207093 
115 1 0.842928 0.206676 0.051604 6.78419 -3.29938 0.463615 0.060875 0.18404 
111 1 0.766445 0.193511 0.0388319 8.04877 -3.20831 0.255172 0.198298 0.157958 
116 1 0.793312 0.25441 0.0513656 7.49096 -3.2812 0.408883 0.417711 0.0642163 
114 1 0.849246 0.249366 0.00600337 7.39573 -3.34485 0.287686 0.228405 -0.329662 
44 1 0.961774 0.190794 0.0607976 2.77491 -3.27778 -0.46161 0.555479 -0.804652 
81 1 0.969884 0.230956 0.00441262 3.32129 -3.25299 -0.669151 0.483278 0.177936 
119 1 0.908755 0.24407 0.05259 0.555661 -3.37662 0.166797 -0.0380168 0.0571312 
117 1 0.904736 0.197177 0.000209925 6.54973 -3.3088 -0.221663 0.182782 0.61233 
123 1 0.0356102 0.317023 0.0487444 0.374332 -3.35683 -0.0451012 0.343029 0.176231 
128 1 0.0988058 0.359149 0.0561168 1.59721 -3.34205 -0.401479 -0.251813 -0.78031 
122 1 0.0440204 0.36126 -0.000305062 1.03736 -3.31462 0.0379729 0.0984653 0.569908 
482 1 0.0291956 0.274935 0.096077 0.734993 -3.2957 -0.131959 -0.156992 0.142249 
522 1 0.0396162 0.364938 0.100586 0.258624 -3.28829 -0.0826187 -0.383229 -0.0139148 
525 1 0.0876962 0.312105 0.0999733 0.438733 -3.26764 0.52254 0.385237 -0.414359 
129 1 0.202794 0.301165 0.00247025 0.247498 -3.35989 0.0660836 0.0100883 -0.00417331 
127 1 0.142851 0.306011 0.0505315 0.863158 -3.36647 0.25979 0.0260924 -0.208052 
132 1 0.208683 0.346057 0.0512833 0.351557 -3.34165 0.0457432 0.0629259 0.0590421 
529 1 0.202558 0.300751 0.0951756 0.453032 -3.31425 -0.221752 0.308483 0.0636825 
526 1 0.152481 0.351104 0.099083 0.386773 -3.33046 0.136367 0.134685 0.332612 
135 1 0.375305 0.279812 0.0525884 1.63594 -3.29699 -0.128673 0.737219 -0.490558 
133 1 0.320131 0.287962 0.00187865 0.566152 -3.34153 -0.187495 0.15442 0.055739 
131 1 0.262073 0.294145 0.0467869 0.511868 -3.29424 -0.00237089 0.10625 -0.185678 
136 1 0.320172 0.335622 0.05024 1.04657 -3.28094 0.775743 -0.379613 -0.526183 
533 1 0.318505 0.286883 0.0951024 1.25106 -3.27447 0.0941857 0.396038 0.055039 
140 1 0.438945 0.323033 0.0507125 0.445749 -3.37022 -0.124943 -0.224971 -0.0996473 
538 1 0.496995 0.314841 0.10027 0.827208 -3.31653 -0.295601 0.0113702 -0.559899 
577 1 0.447648 0.365056 0.0986664 0.889119 -3.28745 -0.20915 0.265462 -0.243538 
144 1 0.49925 0.361426 0.0440581 0.820438 -3.28183 0.285227 -0.117889 0.189396 
143 1 0.553653 0.303154 0.0437794 1.63466 -3.31876 0.200554 0.583258 0.510172 
545 1 0.609446 0.304276 0.0951656 5.2864 -3.31976 -0.344209 0.0271978 0.00504079 
148 1 0.61652 0.344522 0.0376335 8.18204 -3.31295 -0.453576 -0.231488 -0.2445 
542 1 0.555048 0.35293 0.093623 4.51156 -3.31166 0.0224709 -0.102767 -0.211234 
147 1 0.666778 0.291539 0.0409326 7.42621 -3.25535 0.266627 0.201156 0.41005 
151 1 0.744967 0.306536 0.0517026 6.99373 -3.31889 -0.355361 -0.181782 -0.162584 
152 1 0.691008 0.354247 0.0503924 8.27997 -3.26443 0.418345 0.349733 -0.129534 
150 1 0.751595 0.352308 0.00246226 6.36068 -3.268 -0.012009 -0.0645612 0.494404 
553 1 0.751051 0.351589 0.100138 0.320677 -3.29357 0.133499 0.103168 -0.213722 
120 1 0.857434 0.298698 0.0523321 1.10915 -3.2926 -0.0698414 -0.849476 0.49526 
153 1 0.800241 0.301297 0.00242129 6.99871 -3.32999 -0.0418594 -0.464583 -0.22163 
155 1 0.805954 0.341632 0.0493589 1.37725 -3.27684 0.208628 0.755671 0.572978 
157 1 0.867623 0.338992 0.00513719 0.651838 -3.27799 -0.246645 0.246765 -0.222526 
84 1 0.973138 0.281244 0.0464539 1.63219 -3.32717 -0.323322 -0.0475858 0.602373 
159 1 0.919783 0.333886 0.0559396 0.915668 -3.29134 0.381867 -0.042102 -0.176206 
121 1 0.981104 0.325742 0.998095 1.36003 -3.29838 -0.476275 -0.248852 0.537821 
163 1 0.047424 0.407026 0.0540123 0.292984 -3.30452 0.159521 0.25624 -0.474652 
165 1 0.100805 0.40132 0.00295691 0.78915 -3.38049 0.213245 0.0487805 0.0491084 
168 1 0.110563 0.443955 0.0523643 0.539435 -3.3539 -0.152727 0.339477 -0.0058751 
162 1 0.0533796 0.450731 0.000473684 0.627216 -3.29285 0.570247 0.0847285 0.580181 
167 1 0.158598 0.398566 0.0504135 0.536172 -3.27829 0.0765964 -0.39701 0.0958384 
172 1 0.223241 0.437406 0.0517538 0.39416 -3.29883 0.13343 -0.363244 0.255482 
569 1 0.214095 0.392843 0.0963512 1.04973 -3.33397 0.215705 -0.602694 0.416668 
566 1 0.165673 0.439914 0.101559 0.486897 -3.33487 -0.115642 0.5443 -0.172861 
171 1 0.272648 0.383339 0.0492241 0.498887 -3.34847 -0.183735 0.344209 0.224299 
176 1 0.334324 0.422457 0.0526527 0.627755 -3.31977 -0.0282238 -0.156716 -0.0455056 
573 1 0.329603 0.378683 0.0992937 0.563829 -3.30104 -0.271118 -0.137772 0.314586 
570 1 0.276845 0.42764 0.101815 0.60936 -3.28077 0.496802 -0.0801945 -0.350633 
175 1 0.384955 0.373264 0.051005 0.384962 -3.30061 0.315144 -0.189957 -0.107684 
179 1 0.450733 0.410095 0.0463456 0.42216 -3.32532 -0.140897 -0.0901415 0.232016 
180 1 0.397539 0.454901 0.0446982 1.10866 -3.25892 0.392866 0.461622 0.596597 
578 1 0.455584 0.455815 0.0961821 6.56508 -3.31432 -0.000588886 -0.505626 -0.250018 
183 1 0.563366 0.395434 0.0396309 7.32404 -3.33161 0.0501376 -0.0303139 -0.114381 
581 1 0.506728 0.40354 0.0976328 5.54065 -3.31747 -0.21959 0.0690907 -0.119102 
184 1 0.510528 0.446374 0.0385931 8.43569 -3.31254 0.145668 0.0308024 0.0240731 
188 1 0.589446 0.453253 0.0521592 7.82796 -3.36491 0.29524 0.0318083 -0.181568 
189 1 0.698296 0.397577 0.00112561 8.59689 -3.30379 0.509973 0.507175 0.548941 
187 1 0.646714 0.405157 0.0522381 7.59165 -3.30615 -0.237408 0.480747 -0.179656 
191 1 0.709668 0.442782 0.0526818 0.460026 -3.34565 -0.171246 0.193009 -0.100086 
186 1 0.65069 0.451439 0.00431018 6.52945 -3.37378 -0.0466195 -0.341116 0.0430909 
156 1 0.75476 0.392182 0.0545734 0.871072 -3.33796 0.19015 0.186815 -0.548887 
154 1 0.81586 0.387731 0.00586212 0.359554 -3.33312 0.0640203 -0.0230677 -0.084488 
160 1 0.87193 0.384411 0.0555968 0.708832 -3.34929 -0.0760507 -0.411571 -0.317118 
195 1 0.818527 0.431173 0.051878 0.403966 -3.26956 0.209205 0.186985 0.254868 
193 1 0.766914 0.438108 1.00416 0.741118 -3.29565 -0.640799 -0.206715 -0.0674382 
593 1 0.766363 0.437676 0.0980802 0.79423 -3.32679 -0.257176 0.164601 0.470266 
124 1 0.98567 0.369313 0.050172 0.314892 -3.36249 -0.0356582 -0.227725 0.0424406 
158 1 0.930244 0.373143 0.00303505 1.21775 -3.34099 -0.166028 0.627044 0.208582 
197 1 0.872446 0.427886 0.00710784 1.58753 -3.29655 0.536107 -0.374447 -0.496876 
199 1 0.933854 0.420656 0.0524508 0.253723 -3.32924 0.203971 -0.50233 -0.370356 
561 1 0.993726 0.413242 0.0985133 1.32783 -3.30442 -0.526906 0.110117 0.446064 
205 1 0.116869 0.492168 0.00327266 0.696952 -3.34565 -0.0172826 -0.380858 0.286483 
203 1 0.0605865 0.489033 0.0514565 2.59311 -3.35074 -0.0691938 0.610206 0.302775 
208 1 0.121765 0.534056 0.0539007 0.587357 -3.34917 -0.102866 0.0348509 -0.279299 
204 1 0.0108475 0.539904 0.0521072 1.41146 -3.28718 0.0938301 0.148347 0.297676 
201 1 0.00270502 0.498418 0.00257917 0.494748 -3.28008 -0.0440964 0.176929 0.0256522 
605 1 0.112178 0.490536 0.10311 0.941073 -3.33686 0.321903 -0.0345607 -0.438751 
207 1 0.171816 0.485918 0.0531326 0.361694 -3.35883 -0.0289372 -0.230289 0.102733 
212 1 0.23711 0.523533 0.0517359 0.410174 -3.28357 -0.179813 -0.334195 -0.16837 
609 1 0.232181 0.479041 0.100231 0.296143 -3.34991 -0.165622 0.126509 0.0806798 
606 1 0.182188 0.529432 0.0980443 0.746795 -3.31779 -0.377961 0.180338 0.313117 
211 1 0.288778 0.471617 0.0527304 0.512565 -3.33181 -0.263048 0.113301 0.00990793 
215 1 0.351462 0.50498 0.0480028 0.989017 -3.28465 -0.183683 0.258085 -0.194916 
613 1 0.341731 0.464 0.103609 0.8584 -3.32241 0.0920925 0.312652 -0.268201 
610 1 0.293009 0.519055 0.0995899 1.022 -3.30184 0.241544 -0.548906 0.274963 
174 1 0.341959 0.463039 0.998338 0.304532 -3.3139 0.322665 0.22722 -0.0138002 
219 1 0.460142 0.49989 0.0383135 7.54789 -3.30131 0.291212 -0.256148 0.273108 
617 1 0.405698 0.499557 0.0923774 7.03402 -3.26802 -0.173988 0.25485 0.13791 
582 1 0.534138 0.459278 0.100424 8.68625 -3.26212 0.14798 0.107388 -0.176666 
225 1 0.597968 0.495789 -0.000781759 8.00705 -3.30356 -0.0040859 0.350207 0.658831 
223 1 0.54303 0.504917 0.0505101 6.81405 -3.34505 -0.225654 -0.280449 0.392332 
227 1 0.605876 0.541588 0.0560682 0.397308 -3.33635 -0.204639 0.0845129 -0.19854 
586 1 0.599159 0.49628 0.101216 0.519694 -3.21434 0.36399 0.315938 -0.562923 
192 1 0.654892 0.49278 0.0569602 0.789318 -3.27661 -0.16117 -0.225907 -0.496996 
190 1 0.712898 0.488532 0.00741177 0.686982 -3.29954 -0.155805 -0.244333 -0.752722 
231 1 0.716249 0.526538 0.0547196 1.41274 -3.26162 0.537717 1.03001 -0.0576551 
229 1 0.658538 0.536307 0.00605423 0.518413 -3.33154 0.281227 -0.0895742 -0.0253997 
196 1 0.771945 0.482518 0.0501309 0.67705 -3.26637 -0.236462 -0.444849 0.579929 
194 1 0.824671 0.477242 0.999643 1.17492 -3.29734 0.357114 0.104787 0.39867 
235 1 0.83006 0.518489 0.0531085 0.717607 -3.34938 0.829697 0.417816 0.0834096 
233 1 0.776755 0.524643 0.00571201 0.750657 -3.30325 -0.042708 0.4139 -0.707037 
164 1 0.993908 0.45831 0.0522515 0.759151 -3.30398 0.466491 -0.348278 0.0259281 
200 1 0.886214 0.469341 0.0539147 0.825301 -3.30244 -0.703685 0.399936 -0.0969735 
198 1 0.933617 0.464397 0.00299025 1.69565 -3.25953 0.947264 -0.520251 0.060767 
239 1 0.948602 0.504734 0.0495356 0.957294 -3.27754 -0.454835 0.513892 0.566211 
237 1 0.891559 0.514317 0.00278819 0.613557 -3.31263 -0.543075 -0.0781119 0.317571 
598 1 0.938834 0.460537 0.100731 0.715176 -3.29245 0.317655 0.584829 0.379331 
243 1 0.0692608 0.583264 0.0482683 0.746282 -3.26311 0.376296 -0.266393 0.45203 
241 1 0.0170967 0.58798 0.00266904 0.385184 -3.26231 -0.127709 0.121857 -0.597026 
244 1 0.0268081 0.631999 0.0497973 0.77239 -3.26035 -0.591964 0.0780217 -0.130739 
642 1 0.0810818 0.630503 0.0968747 0.49036 -3.29418 -0.385512 -0.247547 0.214717 
247 1 0.18609 0.573776 0.050014 0.493712 -3.36031 -0.0796615 -0.0440432 0.100351 
251 1 0.251877 0.606325 0.0425651 1.23269 -3.28507 -0.0202227 0.201325 0.472222 
248 1 0.132074 0.619905 0.0479684 0.700227 -3.33886 0.480782 0.359591 -0.199296 
645 1 0.128543 0.580895 0.0983076 0.361301 -3.33414 0.217958 -0.16325 0.0955763 
649 1 0.24285 0.568456 0.101154 0.849389 -3.28587 -0.319636 -0.0489117 -0.46296 
646 1 0.195335 0.619644 0.0979947 1.01797 -3.30369 -0.0592632 -0.168832 -0.25082 
216 1 0.299152 0.554068 0.0467041 1.95028 -3.26605 0.44884 0.753677 -0.290676 
255 1 0.359562 0.601965 0.0453303 7.3082 -3.30258 -0.103446 -0.455482 -0.281789 
614 1 0.356344 0.554393 0.0916557 6.94056 -3.30336 0.133472 -0.183768 0.352677 
653 1 0.304638 0.602841 0.09319 6.56568 -3.30526 0.277009 0.175667 0.333886 
220 1 0.407682 0.546208 0.0373972 8.69324 -3.2849 0.465283 0.190965 0.269185 
259 1 0.440765 0.60746 0.0543171 7.80404 -3.27994 0.169645 -0.575522 -0.0156327 
224 1 0.492079 0.556504 0.0501713 6.49263 -3.32895 -0.355768 -0.224541 0.38554 
261 1 0.496419 0.597754 0.00234512 7.81883 -3.30778 0.0697713 0.120072 0.17354 
228 1 0.554011 0.592486 0.0506194 0.946663 -3.3024 -0.00762415 0.00377924 0.869448 
226 1 0.608814 0.585407 0.00598183 0.62079 -3.28523 0.382993 0.210298 -0.0637581 
222 1 0.548001 0.546456 0.00539886 8.32357 -3.27306 0.258275 0.118436 -0.381697 
265 1 0.563365 0.634835 0.00661382 0.679344 -3.33696 -0.16784 0.375096 -0.321292 
232 1 0.668234 0.578724 0.054264 0.206354 -3.34838 0.0351335 0.0524617 -0.1425 
230 1 0.726151 0.570769 0.00520896 0.658858 -3.3944 0.00670991 0.142004 -0.0186395 
267 1 0.620774 0.627496 0.0536313 0.384763 -3.35505 -0.295092 0.303963 0.238743 
271 1 0.732178 0.616686 0.0510271 0.309421 -3.34684 -0.0553735 0.0123123 -0.0793614 
269 1 0.676021 0.620643 0.00442376 0.363592 -3.31618 0.0697641 -0.134303 0.146804 
236 1 0.782188 0.570286 0.0537955 0.642855 -3.34932 -0.216365 -0.660164 -0.212099 
234 1 0.843028 0.562506 1.00057 0.463131 -3.31238 -0.364132 -0.445821 -0.00468862 
275 1 0.842762 0.605698 0.0480779 0.579518 -3.27417 0.530398 -0.038255 0.214808 
273 1 0.793941 0.608664 -0.00284148 1.89213 -3.27955 -0.776684 -0.133005 0.245193 
240 1 0.895791 0.557498 0.0544357 1.00328 -3.36601 0.0126247 -0.218995 -0.426286 
238 1 0.954928 0.548255 1.0004 0.460702 -3.32441 0.0258286 0.30938 0.0628112 
277 1 0.902258 0.599247 0.998873 0.58611 -3.35002 0.586811 -0.156616 0.13642 
279 1 0.965268 0.589 0.0482202 2.34969 -3.32176 -0.693142 0.664715 0.410817 
278 1 0.969972 0.636248 0.000624201 0.472512 -3.35331 -0.201784 -0.137138 -0.0328924 
283 1 0.0817018 0.671685 0.0468029 0.877177 -3.27293 0.43545 0.241603 -0.0134114 
284 1 0.0354408 0.722636 0.0519223 1.18727 -3.28671 0.168462 0.393071 -0.908827 
681 1 0.0277332 0.680983 0.0932208 1.35886 -3.2332 0.260169 -0.472773 1.20308 
682 1 0.0913215 0.71814 0.0981595 0.786976 -3.30551 0.0903393 0.0703083 -0.127602 
252 1 0.198497 0.655128 0.0460309 1.45723 -3.32708 -0.152068 0.223446 -0.290011 
287 1 0.146164 0.704721 0.0439487 2.04763 -3.27791 0.379072 0.231841 0.650393 
689 1 0.211256 0.705157 0.0954849 6.63485 -3.33391 -0.522888 0.112615 0.0901671 
685 1 0.139111 0.668991 0.098402 1.2714 -3.27947 0.773104 0.263136 -0.629305 
256 1 0.307652 0.648489 0.0368216 6.44586 -3.27942 0.0990358 -0.138988 -0.0409202 
291 1 0.256248 0.696085 0.0405681 7.18409 -3.29885 0.134467 0.0321776 -0.268795 
295 1 0.344459 0.700033 0.0512454 6.48632 -3.30355 -0.384774 0.515527 0.156965 
650 1 0.260474 0.65481 0.0892867 7.893 -3.30553 -0.0620787 0.0618948 0.631639 
260 1 0.395539 0.656308 0.0550303 7.1967 -3.25081 -0.0731099 -0.122187 -0.157771 
297 1 0.399833 0.701537 0.00334555 7.46941 -3.25385 -0.200899 -0.942249 0.411819 
264 1 0.458792 0.690224 0.055663 0.474724 -3.32517 -0.163836 0.443465 0.214155 
258 1 0.446482 0.644474 0.00348475 8.11441 -3.29375 0.0126716 0.583588 -0.019802 
263 1 0.506318 0.643548 0.0562505 0.614107 -3.27185 -0.0500237 -0.580361 0.164357 
268 1 0.568136 0.678373 0.055008 0.349857 -3.30684 0.343947 -0.0666369 -0.149815 
262 1 0.510451 0.6821 0.00775755 1.36392 -3.31742 0.515945 0.460382 -0.353584 
305 1 0.57763 0.722154 1.00193 0.472531 -3.299 0.0534367 -0.140569 0.41353 
266 1 0.630199 0.67032 -0.000100283 1.53319 -3.16378 -0.38621 0.877348 1.40715 
272 1 0.681778 0.666915 0.0493538 0.48935 -3.30889 -0.319505 -0.187804 0.527907 
270 1 0.738726 0.660482 0.0034667 0.42182 -3.29579 0.254327 -0.169186 -0.290358 
307 1 0.630342 0.713882 0.0502694 1.53863 -3.33224 0.563707 0.0438456 -0.162689 
309 1 0.693172 0.709545 0.00109856 0.544324 -3.31924 -0.403043 0.399767 0.189025 
276 1 0.795325 0.654938 0.0459135 0.998532 -3.33727 0.14691 -0.0935089 0.460382 
274 1 0.852567 0.644582 0.997899 0.996033 -3.26538 0.477105 0.738328 0.135229 
311 1 0.74061 0.702497 0.0527148 2.48285 -3.30924 0.756317 0.483356 -0.156946 
315 1 0.86232 0.692221 0.0492406 0.488716 -3.38014 0.179852 -0.439938 -0.298352 
313 1 0.802773 0.700381 0.00335947 0.917403 -3.29865 0.127853 -0.618211 -0.50685 
280 1 0.912038 0.641655 0.0480274 0.239547 -3.3796 -0.225011 0.062717 -0.0525976 
319 1 0.976267 0.678851 0.0493812 1.2868 -3.26758 -0.626133 0.701291 -0.743822 
678 1 0.967426 0.640298 0.0964114 0.633737 -3.28711 -0.153626 -0.485075 0.286922 
288 1 0.0980798 0.759983 0.0466937 0.557479 -3.27427 -0.467081 -0.206937 0.29269 
725 1 0.102225 0.805911 0.099853 4.9103 -3.34032 -0.045348 0.136727 0.157224 
323 1 0.049287 0.81183 0.0466801 0.382517 -3.32006 0.111045 -0.436211 0.191145 
721 1 0.0377682 0.76916 0.103006 1.60755 -3.26114 0.688799 0.150279 -0.387585 
292 1 0.203559 0.743947 0.0397194 8.69183 -3.3022 0.295736 0.16741 0.516136 
327 1 0.155917 0.796937 0.0429699 6.4566 -3.16876 -0.0822592 -0.025926 -0.368081 
686 1 0.149546 0.756764 0.100939 7.01127 -3.31427 0.724144 -0.086733 -0.0432025 
331 1 0.234518 0.802349 0.0542714 8.63103 -3.27492 0.916761 -0.00458253 0.178271 
690 1 0.243227 0.760278 0.101141 9.08392 -3.16391 -1.09885 -0.101833 -0.124439 
296 1 0.289632 0.753681 0.050641 6.70554 -3.25739 0.205045 -0.228605 -0.0401787 
294 1 0.349188 0.746527 0.00644087 6.96693 -3.24733 -0.259865 -0.239924 0.153899 
300 1 0.360248 0.78808 0.0542992 0.459588 -3.3285 -0.154502 0.448401 -0.36265 
333 1 0.298248 0.795251 0.00574737 8.03534 -3.32226 -0.0231771 0.190547 0.189013 
694 1 0.30201 0.793711 0.0996866 1.11111 -3.22219 0.197938 0.717442 -0.0175451 
299 1 0.406591 0.739565 0.0548681 0.428372 -3.31418 0.435172 -0.0145741 0.01831 
304 1 0.473121 0.778797 0.0504594 0.536073 -3.35967 -0.173377 -0.086756 0.421892 
301 1 0.463063 0.731914 0.00380651 0.642346 -3.27829 0.587738 0.353137 0.509184 
698 1 0.414379 0.785234 0.102841 0.126159 -3.3459 0.249477 0.266878 -0.0213085 
298 1 0.415723 0.780438 0.00571659 0.560491 -3.31342 0.159334 0.362373 -0.0205088 
303 1 0.520857 0.729201 0.0544481 0.272007 -3.33689 -0.30967 -0.312881 0.0323499 
308 1 0.582196 0.761468 0.0502625 1.65606 -3.28884 0.364018 0.815928 0.0672568 
302 1 0.526491 0.770773 1.00129 0.656361 -3.26208 0.412754 0.18266 0.746477 
702 1 0.528809 0.775057 0.102652 0.496596 -3.35234 -0.222023 -0.395288 0.114599 
345 1 0.58874 0.809541 0.00591063 1.38878 -3.36278 0.318202 -0.0877822 -0.514729 
312 1 0.701862 0.756906 0.046324 1.37744 -3.29927 -0.072663 -0.461196 0.488704 
306 1 0.646748 0.760183 0.00153395 1.13616 -3.326 -0.658216 0.241157 0.0533897 
347 1 0.650088 0.80388 0.0472059 0.433727 -3.31245 -0.0901242 0.181662 -0.0568528 
349 1 0.709417 0.798292 -0.000108443 0.349436 -3.33007 -0.235479 0.366681 -0.100701 
310 1 0.756066 0.748668 0.000538022 0.25387 -3.26584 -0.101502 0.0581505 0.402896 
351 1 0.767774 0.788985 0.0515257 1.2436 -3.33576 -0.274054 0.16806 -0.24941 
316 1 0.813269 0.738653 0.0474083 0.636964 -3.28367 0.0105121 0.58757 0.390216 
355 1 0.879531 0.778217 0.048185 0.758746 -3.28233 -0.236376 0.320191 0.00420308 
353 1 0.818846 0.784819 0.997949 0.364019 -3.32079 0.294331 -0.0834282 0.347191 
314 1 0.871839 0.735764 0.996427 1.48302 -3.31003 -0.64661 -0.0578059 0.6087 
320 1 0.92421 0.733306 0.051238 0.834012 -3.25146 0.37315 -0.730242 -0.31445 
359 1 0.988552 0.772552 0.0488057 0.431736 -3.31175 -0.040683 0.41374 -0.277223 
328 1 0.110786 0.845785 0.0423683 6.95305 -3.3028 -0.0829197 0.533943 -0.155669 
363 1 0.0613565 0.898984 0.0430343 6.78459 -3.27165 -0.346525 0.0419666 -0.259987 
722 1 0.0568768 0.858806 0.100592 6.31891 -3.34693 0.0672685 -0.286 -0.264232 
761 1 0.00389796 0.904918 0.105647 6.70854 -3.26503 0.294479 -0.000499464 -0.852295 
332 1 0.190885 0.852923 0.050821 7.44305 -3.25 -0.108511 0.373746 0.347864 
367 1 0.13624 0.906943 0.0519576 7.36893 -3.22515 0.39969 -0.42945 0.11643 
730 1 0.201918 0.89952 0.095721 1.25451 -3.27842 -0.237867 -0.306818 0.636574 
369 1 0.196176 0.896347 0.00490397 8.23035 -3.30668 0.124403 0.475642 0.109874 
336 1 0.257354 0.890301 0.0501449 0.620971 -3.28629 0.351618 0.391862 0.449184 
330 1 0.251427 0.848243 0.00923576 9.29911 -3.25163 -0.15075 -0.674304 -0.627666 
335 1 0.309353 0.839555 0.053843 0.230061 -3.35206 0.0829647 0.0983798 -0.126333 
340 1 0.378661 0.876676 0.0504066 1.02007 -3.34094 -0.579067 0.0821987 0.600951 
337 1 0.369967 0.831783 0.00288581 0.844444 -3.32471 -0.498775 -0.0425761 0.462139 
334 1 0.320018 0.882678 0.00411151 0.845842 -3.33047 -0.234083 0.0756287 0.396878 
339 1 0.426622 0.829347 0.0549749 0.908518 -3.35696 -0.237772 -0.329314 -0.312527 
344 1 0.488788 0.866492 0.0543348 0.675278 -3.33623 -0.260452 0.16657 -0.213257 
738 1 0.430792 0.874164 0.101959 0.238499 -3.33708 -0.265635 0.131802 -0.363799 
741 1 0.479655 0.823157 0.103361 0.33949 -3.31927 -0.0985747 0.129868 -0.139864 
338 1 0.432786 0.871662 0.00358283 0.251239 -3.29323 0.0643758 0.019414 0.256319 
341 1 0.47961 0.819108 -3.13502e-05 1.44457 -3.29722 -0.0397594 0.338125 0.803975 
343 1 0.534894 0.81652 0.0535297 0.389492 -3.30834 -0.0432596 -0.1573 -0.157182 
348 1 0.600388 0.853533 0.0502357 0.345057 -3.33987 0.0422197 0.245694 -0.102357 
383 1 0.547777 0.90737 0.0456595 1.39307 -3.30131 0.298763 -0.284026 0.862516 
342 1 0.541293 0.859015 0.00538359 0.894421 -3.3394 0.134579 0.142847 -0.369628 
385 1 0.60354 0.899655 0.997689 0.645321 -3.33368 0.274502 -0.312514 0.556008 
352 1 0.713047 0.844598 0.0430638 1.90807 -3.29383 -0.279698 -0.473562 0.436966 
389 1 0.72503 0.888329 -0.00100935 1.28655 -3.26573 -0.911051 -0.347788 0.127447 
387 1 0.665185 0.893968 0.0490556 0.533653 -3.31994 -0.380021 -0.184007 -0.4878 
346 1 0.654719 0.846833 0.995138 1.38926 -3.33428 0.173685 0.287586 0.680298 
356 1 0.832001 0.823234 0.0478647 2.459 -3.22896 -0.391435 0.717368 0.0652588 
391 1 0.774877 0.876923 0.0508143 1.3359 -3.28583 0.548028 0.947153 -0.160852 
350 1 0.772986 0.8349 0.00421074 1.25141 -3.30524 -0.14292 -0.0940967 -0.317292 
393 1 0.833756 0.871047 0.00170612 0.576457 -3.26165 -0.784527 0.309911 0.146927 
324 1 0.00518208 0.860418 0.0456225 1.2306 -3.25952 -0.0457107 -0.489354 0.279252 
354 1 0.880081 0.823976 0.999413 0.572611 -3.30388 0.415944 -0.350453 -0.335971 
395 1 0.886415 0.869767 0.0477718 1.44695 -3.22512 0.485485 -0.0538095 0.357647 
360 1 0.937131 0.824902 0.0466919 1.55944 -3.38292 0.551959 -0.503391 0.0678659 
399 1 0.955496 0.90227 0.0476668 3.0883 -3.28692 -0.551115 0.359969 0.0294591 
368 1 0.0886509 0.960348 0.051306 6.92276 -3.27903 0.0415386 -0.46067 -0.101503 
364 1 0.00341088 0.94753 0.0434331 6.21801 -3.29739 0.652139 0.100505 -0.223277 
766 1 0.103507 0.997022 0.100449 1.394 -3.2793 -0.202022 0.529009 0.0131687 
5 1 0.0933747 0.997304 0.998775 8.48047 -3.2875 0.761497 -0.197216 0.256939 
371 1 0.204993 0.942562 0.0535342 0.914546 -3.29381 0.542604 0.190814 -0.533791 
372 1 0.158069 0.99348 0.0473996 1.02951 -3.34142 0.0123126 0.0585996 0.209495 