ITEM: TIMESTEP
17250
ITEM: NUMBER OF ATOMS
4000
ITEM: BOX BOUNDS pp pp pp
3.4310005238361585e+00 3.7068999476163270e+01
-3.7128327959176843e+00 4.4212832795916675e+01
-4.2812678315642350e-01 4.0928126783156934e+01
ITEM: ATOMS id type xs ys zs c_csym c_peratom fx fy fz 
405 1 0.0342418 0.067066 0.0984267 0.577359 -3.2387 -0.0640303 0.561118 0.333524 
7 1 0.0894114 0.0619518 0.0512446 0.50061 -3.31812 -0.0499778 -0.416534 -0.428471 
3 1 0.0229917 0.0255684 0.0506842 0.492779 -3.23845 0.768335 -0.142462 -0.359547 
766 1 0.0825282 0.018031 0.102207 0.442117 -3.26829 0.184306 -0.150031 -0.544465 
2 1 0.0298607 0.0675629 0.00392152 1.08249 -3.34575 0.464526 0.377456 -0.33308 
5 1 0.0851711 0.0166598 -0.00033362 0.671573 -3.32595 -0.227575 0.153516 0.0881883 
11 1 0.200929 0.044311 0.0530811 0.860339 -3.37177 -0.0217856 0.0208441 -0.250012 
409 1 0.1436 0.0559907 0.101106 0.931825 -3.28926 0.421045 -0.331818 -0.179273 
410 1 0.208297 0.0903062 0.100992 1.3858 -3.31976 0.464248 -0.298765 -0.297149 
372 1 0.134352 0.0086759 0.0527398 1.03464 -3.33176 0.528952 0.258708 -0.0457618 
770 1 0.19967 0.00144031 0.0999235 0.398662 -3.31617 -0.330521 -0.138168 0.162438 
10 1 0.214983 0.0843826 0.00028113 0.339215 -3.33374 -0.156928 -0.178752 0.332267 
16 1 0.268452 0.0745023 0.0508552 0.895246 -3.37019 0.382563 0.404929 0.100084 
15 1 0.324732 0.0284902 0.049655 0.378927 -3.32203 -0.328707 -0.190959 0.111405 
413 1 0.261807 0.0350324 0.100698 0.700395 -3.31818 0.550732 0.347247 -0.150887 
414 1 0.329682 0.0706912 0.100955 0.531435 -3.33103 0.0753555 -0.242862 -0.217479 
13 1 0.267713 0.0325563 0.00265741 1.03963 -3.31177 -0.659908 0.134532 -0.464338 
14 1 0.328855 0.0671429 -0.00205239 0.427712 -3.31083 0.295615 0.123981 0.390397 
20 1 0.390979 0.0597093 0.0467666 0.560014 -3.31373 -0.0199819 0.581821 -0.0405195 
19 1 0.438772 0.0118574 0.0506609 0.464118 -3.32909 0.239637 -0.128802 -0.481927 
418 1 0.446934 0.0538532 0.0979729 0.329201 -3.33641 0.338214 0.28682 0.0600965 
421 1 0.497233 0.00343409 0.0986201 0.426936 -3.29143 -0.109512 -0.143775 0.251756 
417 1 0.380652 0.0234908 0.0967269 1.08408 -3.2571 -0.175969 -0.449078 0.511413 
21 1 0.502099 0.00689259 -0.0029021 1.34209 -3.25115 -1.17709 -0.970249 0.0553939 
17 1 0.384686 0.0186566 -0.000947763 0.392392 -3.35583 -0.434825 -0.0646595 0.17891 
18 1 0.450336 0.0554549 -0.00258049 0.672107 -3.29329 -0.39624 -0.546085 0.239806 
24 1 0.504299 0.0463785 0.0502643 0.659452 -3.28632 -0.16103 0.374084 -0.312345 
28 1 0.617148 0.0341916 0.0422781 1.35732 -3.27805 0.17689 -0.48946 0.624918 
422 1 0.560848 0.0383648 0.0958371 0.797916 -3.27518 0.739169 0.295925 0.125454 
465 1 0.632071 0.0753463 0.0990543 1.04209 -3.25219 -0.665767 -0.70901 -0.320413 
63 1 0.573081 0.079237 0.0455001 0.999592 -3.3273 -0.362204 0.289779 0.0590199 
22 1 0.561568 0.0387657 -0.00645767 1.14689 -3.21084 0.683308 0.488831 0.414968 
32 1 0.731181 0.0195011 0.0488847 0.507703 -3.32372 0.149318 -0.26375 0.123938 
67 1 0.680446 0.068554 0.0462975 0.523389 -3.3089 0.270506 0.187696 0.24951 
469 1 0.735249 0.0644118 0.0977877 1.03731 -3.30772 0.144859 -0.301069 -0.135053 
426 1 0.67498 0.0258584 0.0969959 0.403762 -3.31061 0.216143 0.126467 0.129821 
26 1 0.676586 0.0248787 -0.00089174 0.178805 -3.27236 0.241187 0.183011 -0.237886 
65 1 0.63136 0.0766152 -0.00459897 1.25422 -3.29818 -0.753843 -0.251415 -0.051525 
36 1 0.797756 0.0517408 0.0530571 0.743224 -3.32928 -0.13912 0.134196 -0.387287 
434 1 0.856814 0.0441595 0.0993004 0.886784 -3.32146 -0.396522 0.142205 0.395552 
430 1 0.787148 0.0104053 0.0994307 0.477494 -3.34307 0.125553 0.111976 0.396894 
33 1 0.78655 0.0054021 0.00191112 1.3453 -3.29561 0.317821 0.758465 -0.114657 
75 1 0.860775 0.090656 0.0520033 0.349989 -3.2825 0.246856 -0.490078 -0.280341 
34 1 0.856123 0.0448281 0.00566935 0.730156 -3.34732 -0.298966 0.0437754 -0.273799 
4 1 0.973612 0.0722492 0.0532749 1.39758 -3.25461 0.28748 1.06225 -0.539526 
40 1 0.912723 0.0391464 0.0538669 0.549719 -3.29835 -0.271842 -0.40168 -0.568022 
401 1 0.973303 0.0321002 0.0986557 0.699468 -3.24073 -0.862912 -0.302142 0.758936 
438 1 0.918692 0.0820942 0.100733 0.322778 -3.32324 -0.030118 0.257527 0.0975356 
77 1 0.917075 0.0826145 0.000629683 0.310526 -3.38497 0.491009 -0.11658 0.259853 
8 1 0.0382325 0.111193 0.0477879 0.273123 -3.38535 -0.0135829 -0.306253 -0.0650061 
47 1 0.10545 0.148029 0.043525 2.07929 -3.22676 -0.224235 -0.758113 0.284277 
406 1 0.0966549 0.10264 0.102484 0.787616 -3.31496 -0.274548 0.194801 -0.223483 
445 1 0.0440135 0.149321 0.0955852 1.89156 -3.24687 0.938762 0.439916 0.566647 
45 1 0.0465193 0.153337 -0.00139959 0.41431 -3.33693 -0.0129858 0.0164356 -0.159536 
6 1 0.101411 0.103117 -0.00118928 0.790837 -3.30663 -0.689401 -0.138281 0.00841233 
12 1 0.151257 0.0955926 0.0471646 0.933131 -3.30987 0.607381 -0.0683241 0.51028 
52 1 0.178465 0.177589 0.0492185 2.05782 -3.28746 -0.437495 0.00451265 -0.0478896 
51 1 0.222007 0.128079 0.052184 0.793272 -3.32355 0.0558515 -0.199098 -0.237738 
449 1 0.158183 0.136553 0.0984264 1.21645 -3.31447 0.146054 0.234737 0.0237743 
450 1 0.225129 0.167631 0.103759 1.87032 -3.30006 0.928121 0.223651 -0.576861 
49 1 0.166949 0.135651 0.00227095 0.819561 -3.29567 0.0174282 0.120152 -0.411451 
55 1 0.341015 0.108323 0.0503709 0.944344 -3.31012 -0.332835 0.177532 -0.57405 
56 1 0.284125 0.164426 0.0472359 1.73244 -3.31685 0.379394 -0.412319 0.315306 
453 1 0.282222 0.119063 0.0979338 0.945628 -3.32591 -0.455005 0.0510023 -0.130875 
454 1 0.345063 0.153306 0.0997135 0.377195 -3.31373 0.263306 0.509101 -0.489127 
54 1 0.345863 0.15118 0.00143302 0.948456 -3.37067 0.0725094 0.384181 -0.193066 
53 1 0.280123 0.116945 0.00187022 0.486893 -3.32768 0.259469 0.237435 0.125786 
59 1 0.454117 0.0966398 0.0466816 0.313244 -3.32833 -0.241085 -0.0817602 0.216201 
60 1 0.40612 0.146729 0.045888 0.626471 -3.33987 -0.282795 0.0184412 0.277095 
458 1 0.464811 0.138851 0.0982987 0.37496 -3.32499 -0.486828 0.0040996 0.178359 
457 1 0.396318 0.105365 0.0954681 0.730913 -3.32501 0.493402 -0.196568 0.546824 
99 1 0.467359 0.18341 0.0502892 0.618702 -3.32849 0.418212 0.00372165 -0.112912 
61 1 0.512216 0.0882462 -1.32074e-05 0.488635 -3.34156 0.359735 0.276789 -0.25988 
461 1 0.517653 0.089663 0.0981524 0.984409 -3.25702 -0.789778 -0.563192 0.346516 
64 1 0.519848 0.127182 0.0524151 1.72361 -3.26182 0.294423 0.716742 -0.813685 
103 1 0.583939 0.164138 0.0466726 0.896276 -3.29846 -0.154355 0.609636 0.325623 
462 1 0.580514 0.121174 0.0984447 1.09015 -3.28926 0.0567244 0.47504 0.211946 
501 1 0.527939 0.174805 0.09583 0.678976 -3.3248 -0.235319 0.029972 0.149076 
62 1 0.575456 0.125132 -0.002838 0.282631 -3.29142 -0.167806 -0.432439 -0.243327 
101 1 0.527617 0.171383 0.000206882 1.18359 -3.30066 -0.200152 0.353869 0.225887 
68 1 0.62904 0.119011 0.0449762 1.23986 -3.28245 0.690804 -0.248441 0.336164 
72 1 0.698065 0.153854 0.0491588 0.367824 -3.33592 -0.499902 0.106798 -0.0293878 
71 1 0.743578 0.107861 0.0517964 1.56565 -3.27981 0.206272 -0.740295 -0.317275 
505 1 0.639568 0.159919 0.0981315 0.472349 -3.32851 -0.0800064 0.135647 -0.234868 
466 1 0.685719 0.112199 0.0976029 0.748619 -3.22292 0.40054 0.299843 0.00874354 
69 1 0.689907 0.113121 0.00109835 0.678089 -3.27246 0.0386009 -0.237255 -0.2808 
66 1 0.637998 0.159919 -0.00566358 1.04958 -3.31305 -0.0823134 0.231512 0.204293 
473 1 0.804232 0.0949436 0.0975335 0.970741 -3.28365 -0.425185 0.129449 0.335522 
76 1 0.809539 0.137942 0.0463124 1.44506 -3.30507 -0.0449297 0.761991 0.702157 
470 1 0.750895 0.144555 0.101988 0.832583 -3.33478 0.426271 0.199629 0.0205187 
477 1 0.864473 0.13069 0.0983516 0.8055 -3.31625 0.488351 0.693025 0.218612 
80 1 0.874085 0.177912 0.0541765 1.73629 -3.32607 -0.194238 -0.488562 -0.659109 
474 1 0.813503 0.181091 0.0992117 0.624023 -3.31569 0.616234 -0.16247 0.250254 
74 1 0.868306 0.131658 0.00449641 1.07736 -3.21177 0.157904 0.25196 -0.210737 
70 1 0.754746 0.145857 -0.00310315 1.574 -3.24637 0.290594 0.216176 0.488879 
113 1 0.814742 0.184184 -0.000486922 1.2562 -3.29537 1.01924 -0.455253 0.617918 
43 1 0.990537 0.158753 0.0500217 0.835873 -3.23861 -0.310204 0.382026 -0.678018 
79 1 0.924058 0.128118 0.0496119 0.755907 -3.29296 0.00112253 -0.391018 0.0508321 
402 1 0.975797 0.12304 0.0986437 2.90238 -3.24727 0.176205 -1.1721 0.24045 
441 1 0.931709 0.170662 0.100735 0.580009 -3.27363 -0.163259 -0.131633 -0.225184 
78 1 0.930999 0.166075 -0.00175887 0.696523 -3.2958 0.230124 0.740239 0.458353 
446 1 0.109586 0.18454 0.0887127 4.59076 -3.26569 0.0868089 0.422412 1.31796 
48 1 0.0475143 0.199076 0.0500517 3.64035 -3.2746 0.573987 0.0182359 -0.238009 
83 1 0.00190536 0.250817 0.0478288 2.19512 -3.33964 0.284864 -0.51364 0.0390634 
485 1 0.0675538 0.239473 0.0963988 1.42965 -3.31685 -0.296659 -0.543972 0.394327 
87 1 0.12789 0.225414 0.0463264 2.73783 -3.26723 -0.678708 0.534881 0.555903 
486 1 0.137301 0.269695 0.0995387 1.37882 -3.27247 -0.491494 -0.287932 -0.068988 
91 1 0.240646 0.211136 0.0528532 1.27758 -3.29058 -0.360349 0.442992 -0.431096 
92 1 0.186188 0.265463 0.0482005 1.26118 -3.317 0.529642 -0.437055 0.0854731 
489 1 0.178826 0.218614 0.101214 1.09388 -3.35284 0.240334 0.16351 -0.326712 
89 1 0.178273 0.223036 -0.00117752 0.451329 -3.25632 0.623818 -0.184578 0.210838 
490 1 0.248146 0.253054 0.0974643 0.357366 -3.36881 -0.226661 0.164864 0.226399 
90 1 0.245113 0.257131 -0.0018781 0.357147 -3.32605 0.254551 -0.332022 0.512723 
95 1 0.352931 0.198156 0.0500161 0.320649 -3.371 0.251883 -0.133544 -0.153674 
96 1 0.30252 0.24728 0.0487418 0.42247 -3.32721 0.463278 0.026324 -0.103729 
493 1 0.297718 0.203411 0.100266 0.310735 -3.34257 -0.0281737 -0.113612 0.0832825 
494 1 0.366279 0.240383 0.0995414 0.487121 -3.3214 -0.461094 -0.278476 -0.0905093 
100 1 0.421768 0.236412 0.0517524 0.590255 -3.27938 -0.432826 -0.627424 -0.460613 
139 1 0.483513 0.269623 0.054326 1.34473 -3.24052 0.475004 0.14312 -0.875813 
497 1 0.412303 0.190089 0.099618 0.305485 -3.36568 -0.139211 -0.0946172 0.178904 
498 1 0.477854 0.22628 0.101119 0.45191 -3.3461 0.150928 -0.313036 0.0310835 
537 1 0.428836 0.277048 0.0975429 0.328159 -3.23301 -0.148927 0.240985 0.562367 
104 1 0.53306 0.219146 0.0443364 1.2346 -3.30492 -0.39064 -0.34058 0.390789 
108 1 0.599446 0.25055 0.0493175 0.989061 -3.27747 0.0229873 0.557372 -0.484062 
502 1 0.587318 0.212481 0.0947267 0.984729 -3.27666 -0.0907328 -0.413543 0.377439 
541 1 0.541701 0.263706 0.0969035 0.660853 -3.3083 0.0670062 -0.336923 0.642984 
102 1 0.53737 0.262706 0.00156423 0.866713 -3.31356 0.216344 -0.00398434 -0.256429 
107 1 0.647864 0.203135 0.0485173 0.194169 -3.34547 0.0270724 -0.272679 0.169427 
509 1 0.704648 0.195102 0.100015 0.336727 -3.31461 -0.265661 0.207628 -0.0432221 
112 1 0.711063 0.240683 0.0494608 0.503727 -3.31512 0.03502 -0.179134 0.476905 
506 1 0.652204 0.245955 0.0994097 0.416185 -3.30506 0.419344 0.12938 -0.138988 
109 1 0.701773 0.193941 0.000546001 0.972152 -3.2669 0.18497 0.194793 0.0888472 
106 1 0.661359 0.245555 -0.000875553 1.57768 -3.29726 -0.982477 0.0980549 0.238853 
115 1 0.820699 0.222076 0.050517 1.32575 -3.29329 0.878565 0.861152 0.000152996 
111 1 0.758641 0.189674 0.0538959 0.937369 -3.24181 -0.139865 -0.307233 -0.615054 
517 1 0.828111 0.270208 0.10266 1.22792 -3.32152 0.0751269 -0.161721 -0.5154 
513 1 0.768798 0.232851 0.101971 0.745564 -3.30766 -0.288294 0.122079 -0.331854 
116 1 0.778096 0.275883 0.050062 0.55859 -3.32626 0.152632 -0.35532 -0.108475 
114 1 0.834941 0.267389 0.00021497 0.302011 -3.40196 0.00806225 -0.123725 0.285448 
442 1 0.998832 0.2006 0.10178 1.17337 -3.31667 0.00399206 0.445122 -0.1544 
44 1 0.941695 0.208651 0.0474327 0.885152 -3.36198 0.297429 0.281151 0.195479 
119 1 0.894056 0.260516 0.0513754 0.966765 -3.31558 -0.64845 -0.315903 -0.402343 
478 1 0.881564 0.219569 0.0978782 0.629143 -3.28808 -0.0730507 -0.0955008 0.0960316 
481 1 0.949805 0.25238 0.0996156 0.454223 -3.32858 0.0124263 -0.164248 -0.00251211 
42 1 0.999412 0.201847 -0.000349542 0.660356 -3.34379 -0.250067 0.280862 -0.304552 
81 1 0.944599 0.25431 -0.00316459 0.774274 -3.34544 0.383111 0.0897559 0.241653 
88 1 0.0751478 0.278837 0.0530597 1.3795 -3.25881 -0.514111 -0.201948 -0.772305 
123 1 0.0229752 0.330878 0.0509898 0.269408 -3.29121 -0.420464 -0.538204 -0.0068933 
482 1 0.0129695 0.289728 0.102951 1.06849 -3.3026 0.0622335 -0.276923 -0.305455 
525 1 0.0801919 0.318246 0.099494 0.554045 -3.29243 0.381779 0.143453 0.303787 
82 1 0.0142151 0.289465 -0.00249742 0.500143 -3.34593 -0.319825 -0.174456 0.230695 
127 1 0.134112 0.312107 0.0467382 1.1132 -3.29527 0.559845 0.324527 0.0920125 
132 1 0.202206 0.345317 0.0484721 0.533538 -3.3446 0.394371 0.0290369 -0.21588 
526 1 0.150185 0.350577 0.0976413 0.882297 -3.28494 -0.732836 -0.162148 0.168118 
529 1 0.200469 0.303188 0.0976837 0.573367 -3.30816 0.150044 0.0890585 0.0876325 
131 1 0.260151 0.298639 0.0486924 1.12951 -3.3273 -0.818159 -0.311173 0.0180834 
136 1 0.321037 0.33132 0.0508139 0.308291 -3.27562 -0.00433646 0.221987 -0.267587 
533 1 0.316003 0.288208 0.0969348 0.530342 -3.31358 -0.415103 -0.0262985 0.229808 
135 1 0.371926 0.285151 0.0487804 0.415212 -3.29857 -0.241445 -0.591003 0.0178922 
530 1 0.261913 0.340245 0.101348 0.843836 -3.33427 -0.179227 -0.405012 -0.328166 
134 1 0.376842 0.321165 -0.00183846 1.49975 -3.25885 0.214895 0.922052 0.135296 
534 1 0.379754 0.325773 0.0988559 0.316099 -3.29389 0.0742504 -0.141576 -0.338822 
140 1 0.436642 0.318525 0.0476464 0.584938 -3.29252 -0.235396 0.170001 0.502621 
538 1 0.49073 0.314162 0.101741 0.743362 -3.36615 0.216622 0.0471988 -0.339675 
577 1 0.44326 0.362752 0.100901 0.860452 -3.35064 -0.348827 -0.245677 -0.118751 
144 1 0.495219 0.356819 0.0446068 2.08546 -3.23462 0.886922 -0.636947 1.11685 
138 1 0.44141 0.359852 -0.000224816 0.534452 -3.26488 -0.728688 0.131226 -0.402482 
143 1 0.553017 0.302255 0.049524 1.15518 -3.30561 -0.314501 0.369496 -0.107463 
545 1 0.605211 0.299528 0.0999151 0.631111 -3.23996 0.019215 -0.317007 0.307846 
148 1 0.614377 0.340014 0.0503384 0.537039 -3.2804 -0.280601 0.183387 -0.320321 
542 1 0.557873 0.346802 0.0967099 1.02275 -3.33519 -0.776859 0.0876825 0.391148 
142 1 0.559662 0.348459 -0.00136548 1.28081 -3.31211 -0.666736 -0.334486 0.606862 
147 1 0.657638 0.289446 0.0522576 1.30728 -3.3217 0.459386 0.141179 -0.355753 
151 1 0.730313 0.323042 0.0492797 1.20256 -3.30264 -0.605227 0.472189 -0.111229 
549 1 0.66944 0.334781 0.0996247 0.573622 -3.35854 0.317301 -0.181397 0.255592 
510 1 0.720987 0.282254 0.0967269 1.18306 -3.347 -0.253621 -0.0890848 0.462007 
149 1 0.718235 0.283703 0.00294416 0.943852 -3.31578 -0.000689171 0.0951303 -0.446554 
146 1 0.666583 0.333795 0.000988556 0.507197 -3.36232 0.251535 -0.274877 -0.226378 
120 1 0.83976 0.313112 0.0487689 0.90436 -3.2736 -0.292423 -0.532242 0.102481 
155 1 0.790942 0.359655 0.0492209 0.366124 -3.36176 0.0619647 0.271205 -0.159052 
514 1 0.7807 0.321378 0.0999052 1.25126 -3.25357 0.225828 -0.326895 -0.0528595 
557 1 0.85109 0.349925 0.101916 1.75256 -3.30896 -0.122706 0.405637 -0.373199 
153 1 0.785046 0.314812 -0.00445248 1.16854 -3.30978 -0.0310621 0.376062 0.287605 
84 1 0.955153 0.296633 0.0496761 0.326562 -3.29746 0.367468 0.247568 -0.0433595 
159 1 0.905594 0.3436 0.0468763 0.994426 -3.31992 0.430373 0.784826 0.443609 
518 1 0.896023 0.301878 0.0961834 0.971424 -3.30391 0.246958 0.0625789 0.693105 
521 1 0.963191 0.337627 0.101867 0.205761 -3.39718 -0.148188 0.140886 -0.210249 
118 1 0.897503 0.304503 0.0006369 0.689898 -3.28416 0.387977 -0.213224 -0.228137 
128 1 0.0848888 0.362099 0.0502026 0.646693 -3.31578 0.729863 0.454314 0.103415 
522 1 0.0335866 0.370531 0.102242 0.679942 -3.31888 -0.424994 0.126963 -0.214705 
163 1 0.0436436 0.416046 0.0512772 1.17859 -3.23699 -0.826938 -0.757344 0.400083 
168 1 0.107893 0.444109 0.0516265 1.35148 -3.25299 0.419661 1.09951 0.0956998 
565 1 0.0992346 0.406599 0.102425 0.947095 -3.28276 -0.504502 -0.602453 -0.0659687 
167 1 0.155625 0.397761 0.0499878 0.606423 -3.28996 -0.432379 -0.594206 0.0773705 
172 1 0.215395 0.434277 0.0518468 1.28157 -3.28261 0.476417 -0.282986 -0.0855881 
569 1 0.20849 0.385201 0.0987441 1.36447 -3.27097 0.958632 0.688571 -0.154081 
566 1 0.161843 0.436265 0.102969 1.00964 -3.21518 0.0246391 0.511197 0.0778605 
171 1 0.270755 0.379803 0.0492029 0.662649 -3.33319 -0.579351 0.0827866 -0.0707731 
176 1 0.332355 0.418318 0.0486212 0.389274 -3.26074 0.186348 -0.0479099 0.078507 
573 1 0.324699 0.374257 0.0964747 0.587576 -3.27876 0.354482 0.166289 0.307626 
570 1 0.278937 0.423239 0.0960143 1.11958 -3.33685 -0.461404 -0.156899 0.554794 
173 1 0.326814 0.372874 0.00244892 0.497855 -3.29047 -0.0731258 -0.21355 -0.166865 
175 1 0.38343 0.365886 0.0514809 0.465949 -3.33602 0.212019 0.11292 -0.346723 
179 1 0.446679 0.401089 0.0484204 0.922812 -3.25326 -0.29789 0.759787 0.261642 
578 1 0.449439 0.447649 0.09679 0.562328 -3.26856 0.641289 0.277936 -0.259201 
574 1 0.389832 0.412161 0.095879 0.90825 -3.31952 -0.361317 -0.485922 0.194425 
180 1 0.39323 0.455953 0.0503932 0.374596 -3.34238 0.063472 0.00125293 -0.350616 
178 1 0.451694 0.446031 -0.00171272 0.663943 -3.36154 0.086649 0.350271 0.376635 
177 1 0.387204 0.407823 0.00125409 0.817288 -3.31255 0.377783 0.620012 0.0686917 
183 1 0.557031 0.392597 0.0519595 1.24595 -3.28664 0.161752 -0.595359 -0.283804 
184 1 0.507435 0.443905 0.0499572 1.05169 -3.33896 -0.362215 -0.283506 -0.124635 
581 1 0.501962 0.398817 0.0990342 0.430512 -3.2858 0.196738 -0.229797 0.0351368 
585 1 0.566645 0.432876 0.0976002 0.30664 -3.23521 -0.315162 -0.0935792 0.0716282 
546 1 0.616866 0.382231 0.0981281 0.469227 -3.32033 0.324923 0.145747 0.512467 
181 1 0.501469 0.398722 0.00285804 1.11781 -3.25387 0.469983 0.0849228 -0.841007 
182 1 0.56818 0.430203 0.00412995 1.69867 -3.28636 -0.306526 0.29384 -0.758661 
187 1 0.626255 0.421019 0.0500349 1.40549 -3.22234 -0.11315 0.44617 0.24568 
553 1 0.735185 0.369252 0.105062 1.43942 -3.30123 -0.255672 -0.0545637 -0.806421 
152 1 0.677574 0.375489 0.0499577 0.343489 -3.33224 0.156909 -0.349895 0.099611 
550 1 0.68421 0.416721 0.101968 0.510139 -3.29516 -0.620522 -0.223769 -0.17291 
156 1 0.740234 0.409776 0.0505384 0.150621 -3.30238 -0.075995 -0.143088 -0.195994 
593 1 0.745668 0.448617 0.102226 1.59394 -3.30615 0.62087 0.836583 -0.396208 
150 1 0.733523 0.367462 -0.001874 0.262768 -3.36779 0.195234 -0.0971535 0.438798 
189 1 0.67975 0.418016 0.00435078 1.68402 -3.22543 0.484328 -0.160921 -0.807147 
160 1 0.857821 0.395726 0.0481855 0.363521 -3.30652 -0.0170554 -0.232046 0.064598 
195 1 0.80104 0.444534 0.0484545 1.28891 -3.34745 0.48597 0.61778 -0.0569393 
197 1 0.862911 0.441552 0.0025211 2.97824 -3.26824 -0.300424 -0.8368 -0.114938 
554 1 0.80286 0.402701 0.093835 2.30708 -3.31002 -0.170106 0.012441 0.647679 
597 1 0.869649 0.442267 0.0965105 2.66344 -3.30949 -1.03229 -0.517472 -0.189842 
154 1 0.803039 0.40234 -0.000999661 0.911943 -3.34203 -0.224772 -0.0439089 0.0439924 
124 1 0.977052 0.383214 0.0526593 1.38575 -3.32478 -0.271112 -0.834953 -0.0393338 
199 1 0.925276 0.42743 0.0512658 0.766387 -3.29486 -0.0705406 0.247173 0.0432336 
561 1 0.981319 0.420122 0.101285 0.478049 -3.31954 0.261404 0.285952 -0.144408 
558 1 0.911796 0.386844 0.1005 0.818291 -3.33278 0.253156 -0.184608 -0.334706 
203 1 0.0533481 0.500315 0.0505586 0.674686 -3.30952 -0.216766 -0.337343 -0.312078 
605 1 0.111955 0.49196 0.10112 0.527086 -3.3321 0.39996 -0.409426 -0.128505 
602 1 0.0648467 0.540948 0.0999079 0.637687 -3.24641 -0.520617 -0.0768469 -0.0671916 
208 1 0.117879 0.530529 0.050334 0.654429 -3.30142 0.808012 0.406484 -0.19577 
562 1 0.047127 0.458829 0.100611 0.767187 -3.36324 -0.200676 -0.343655 0.0248851 
205 1 0.114986 0.487682 -0.000404289 0.360925 -3.32387 -0.654224 0.133992 0.522605 
207 1 0.175284 0.484811 0.049391 1.7253 -3.32208 -0.623413 -0.263222 0.30983 
212 1 0.233812 0.523904 0.0501853 1.33948 -3.28735 0.00584497 -0.259959 0.00844124 
609 1 0.22285 0.469969 0.10304 2.2826 -3.25975 0.504231 0.844981 -0.0945278 
606 1 0.181003 0.522359 0.101562 1.72614 -3.33707 -0.329813 0.306874 0.115186 
206 1 0.177318 0.523905 -0.00146705 0.647607 -3.27751 -0.170954 0.741815 0.60936 
211 1 0.282184 0.468045 0.0537949 0.745665 -3.33587 -0.135575 0.442804 -0.137144 
215 1 0.345745 0.509023 0.0522148 0.802655 -3.31977 -0.210399 -0.571879 0.0814143 
613 1 0.339516 0.461584 0.102652 0.722453 -3.30668 -0.105441 -0.226023 -0.498856 
610 1 0.287821 0.513071 0.100764 0.366215 -3.35281 -0.452663 -0.152918 0.0730256 
174 1 0.334082 0.462039 0.00335703 0.967419 -3.28523 0.651947 0.313722 -0.284896 
614 1 0.349384 0.549728 0.103826 0.439662 -3.30856 0.322176 -0.0517826 -0.142256 
219 1 0.455273 0.492893 0.0466434 1.1476 -3.31697 0.517354 -0.240131 0.370925 
621 1 0.467071 0.53448 0.0997824 0.547684 -3.3306 0.425518 -0.209843 0.213871 
220 1 0.408896 0.541559 0.0562979 1.21345 -3.26038 -0.143537 0.335623 -0.802347 
617 1 0.405434 0.498314 0.100905 0.525183 -3.27987 -0.224714 -0.0871683 -0.258413 
188 1 0.572079 0.474696 0.0459114 0.975249 -3.24207 0.0436509 0.045045 0.120105 
582 1 0.515967 0.483985 0.0998705 0.418711 -3.38328 -0.0777258 0.0994144 -0.204874 
223 1 0.526115 0.524839 0.0485531 0.404538 -3.38081 -0.163814 -0.0139164 0.145452 
586 1 0.583882 0.514264 0.101927 1.39367 -3.29332 -0.311903 0.181778 0.00347362 
221 1 0.517732 0.484584 -0.00188508 0.63911 -3.33322 -0.298475 -0.212845 -0.00525903 
191 1 0.688781 0.460227 0.0484958 0.784348 -3.34452 0.214252 -0.136566 -0.132227 
192 1 0.632056 0.510355 0.0501225 2.60981 -3.24898 0.783638 -0.142778 -0.347252 
231 1 0.707983 0.542406 0.0501414 0.568119 -3.27833 -0.486742 0.27642 0.0722123 
589 1 0.627658 0.464762 0.0918516 2.94191 -3.26322 0.661097 0.396974 0.823082 
590 1 0.693159 0.500524 0.0934334 2.38842 -3.32247 0.256984 0.0637707 0.839266 
190 1 0.70574 0.50063 0.000103779 2.72734 -3.28206 -1.11619 0.0123917 -0.265718 
196 1 0.754922 0.496552 0.0490691 0.674846 -3.23199 0.405576 -0.612846 0.109446 
194 1 0.813511 0.487234 -0.00301454 0.698324 -3.31613 -0.64811 -0.162691 0.505252 
235 1 0.820853 0.530177 0.0490382 0.740067 -3.31547 0.408445 -0.35892 -0.0203328 
200 1 0.878313 0.480134 0.0474184 1.32792 -3.29325 -0.591157 0.0592971 0.76986 
594 1 0.810134 0.488023 0.0967053 1.55536 -3.38211 0.695194 -0.563454 0.271759 
633 1 0.767638 0.534771 0.101958 1.36923 -3.35506 -0.507729 0.550372 0.114679 
637 1 0.885172 0.524505 0.105532 3.20451 -3.20335 -0.731062 -0.825747 -0.924456 
164 1 0.989724 0.463346 0.0496031 0.344761 -3.30354 0.23394 -0.236567 0.257544 
239 1 0.945189 0.510429 0.0523093 1.25723 -3.29028 -0.322891 0.546775 -0.400854 
601 1 0.998773 0.50754 0.101301 0.339689 -3.26752 0.228118 -0.245721 -0.0284054 
598 1 0.93705 0.471886 0.100443 0.846473 -3.28655 -0.202375 -0.158063 -0.0882346 
237 1 0.882259 0.518065 0.00123589 0.666654 -3.27375 0.000669157 0.4589 0.0860751 
243 1 0.0665589 0.577988 0.0466401 1.31759 -3.25745 0.743437 0.862127 0.272569 
642 1 0.076085 0.623581 0.0981181 0.695748 -3.32564 -0.278754 -0.0239222 -0.0525129 
245 1 0.123558 0.574354 -0.0029536 0.505857 -3.33741 0.4946 0.259912 0.144321 
641 1 0.00769213 0.592881 0.099295 0.888717 -3.34546 0.0532938 -0.207615 0.11123 
244 1 0.0144002 0.630733 0.0489318 0.750986 -3.37058 0.17608 0.21374 -0.170105 
241 1 0.0123269 0.586788 -0.00590972 1.18604 -3.29452 -0.0920001 -0.0411281 0.620131 
645 1 0.126397 0.575727 0.102569 0.830565 -3.28131 0.422355 -0.377062 -0.650851 
204 1 0.00284234 0.550985 0.0485376 1.2419 -3.27856 -0.437816 -0.669125 -0.00747896 
242 1 0.0721314 0.623187 -0.000236162 0.350685 -3.31711 -0.0157819 0.264069 0.233728 
248 1 0.133638 0.615278 0.0510602 1.47848 -3.30847 -0.657889 0.178868 -0.253238 
247 1 0.181574 0.570339 0.0465573 1.0224 -3.32452 -0.239637 -0.32933 0.534714 
649 1 0.234963 0.56485 0.103438 0.716708 -3.30499 -0.0961157 -0.395187 -0.466501 
251 1 0.243185 0.609167 0.0529064 0.430739 -3.35856 0.124741 -0.184861 0.0149011 
646 1 0.184588 0.61551 0.102459 0.571533 -3.28099 0.204303 -0.352723 -0.291005 
249 1 0.186715 0.616216 -0.000257989 1.04081 -3.28928 -0.243694 -0.590455 0.0225172 
216 1 0.295791 0.560223 0.0519954 0.879827 -3.3046 -0.127961 -0.270933 0.256197 
255 1 0.358243 0.594602 0.0562509 1.36519 -3.27519 -0.318998 -0.461144 -0.792699 
653 1 0.295376 0.598553 0.109511 2.49444 -3.25222 0.659536 0.464126 -1.08923 
256 1 0.306872 0.645263 0.0520767 1.3745 -3.28074 -0.254572 -0.930368 0.254816 
657 1 0.364479 0.631785 0.100416 0.613372 -3.30522 -0.169502 0.483008 0.609558 
259 1 0.424594 0.626246 0.0550439 0.716284 -3.29275 -0.247323 -0.0962087 -0.718209 
224 1 0.474248 0.575421 0.051404 0.222424 -3.34567 -0.219889 -0.104523 -0.180524 
618 1 0.415806 0.582735 0.101029 0.297567 -3.30655 0.0757871 0.0709282 0.505168 
622 1 0.481073 0.616825 0.101022 0.375249 -3.31524 0.121436 -0.0235361 0.170331 
227 1 0.590151 0.557763 0.0533759 1.21871 -3.31996 -0.224818 0.438282 -0.0499282 
228 1 0.535293 0.610517 0.0473941 1.06169 -3.23985 0.279566 0.0234273 0.362277 
625 1 0.531038 0.569452 0.105126 1.82403 -3.26835 -0.392553 -0.422077 -0.752158 
626 1 0.591322 0.605108 0.0944248 3.00271 -3.28942 0.820365 -0.364092 0.569608 
629 1 0.648237 0.551533 0.103379 1.44954 -3.31098 0.263157 0.0472002 -0.516141 
232 1 0.657286 0.592576 0.0504952 0.359809 -3.31937 -0.422845 -0.159021 -0.108054 
271 1 0.721652 0.626521 0.050132 0.357447 -3.30361 0.409202 0.0699734 -0.239058 
630 1 0.710313 0.587057 0.098247 1.06487 -3.32601 0.647283 -0.302998 0.483314 
669 1 0.664874 0.637999 0.0998366 0.411162 -3.31945 -0.0496064 -0.34014 0.0407087 
236 1 0.771417 0.57673 0.0497802 0.406976 -3.30867 0.204929 0.386592 0.1167 
275 1 0.838984 0.610832 0.0493276 0.277352 -3.35807 0.261648 0.204882 0.0460872 
634 1 0.836266 0.57166 0.0962013 1.72085 -3.32095 -0.639716 -0.190596 0.705671 
673 1 0.780077 0.618821 0.0993025 0.331056 -3.34043 0.133815 -0.189083 -0.029679 
273 1 0.78423 0.620339 -0.00112189 0.629505 -3.31501 -0.407496 -0.381126 0.386979 
240 1 0.891057 0.559039 0.0498293 1.12295 -3.29706 0.0151024 0.0881347 -0.0474553 
279 1 0.949297 0.598141 0.0487618 1.08997 -3.28816 0.417299 -0.0558911 0.0892749 
638 1 0.950608 0.553724 0.100371 0.832299 -3.27881 -0.0327443 0.459745 0.0832257 
677 1 0.902804 0.603324 0.1029 1.76234 -3.29935 -0.527954 0.203359 -0.451886 
238 1 0.944931 0.555217 -9.52988e-05 0.918945 -3.35649 0.188746 -0.226196 -0.0279753 
277 1 0.897619 0.604606 -0.000765638 0.723835 -3.28535 -0.380821 -0.153207 -0.0903937 
283 1 0.078524 0.667168 0.0483833 0.429122 -3.32199 0.0806818 -0.0703686 -0.107898 
284 1 0.0305608 0.717224 0.045433 0.749985 -3.29156 -0.325093 0.378585 0.548391 
681 1 0.0277191 0.676612 0.0965701 0.793148 -3.29997 -0.503922 -0.0630562 0.0692985 
682 1 0.0878212 0.713631 0.0952446 0.941748 -3.24633 -0.760775 -0.165666 0.663458 
285 1 0.0854237 0.713259 0.000903969 0.286793 -3.26843 0.00748272 -0.169193 -0.436669 
281 1 0.0192577 0.678438 -0.00123522 0.936915 -3.31562 0.173792 -0.474268 -0.0833055 
685 1 0.132342 0.663156 0.0993956 0.620818 -3.27126 0.540375 -0.0622418 -0.527842 
252 1 0.190169 0.654818 0.0512755 0.445393 -3.33768 0.0136338 0.376829 0.0717233 
287 1 0.139892 0.709101 0.0500547 1.25165 -3.24541 0.357272 -0.762041 -0.16864 
689 1 0.197685 0.698786 0.102779 0.144287 -3.31242 0.305322 -0.133596 -0.521784 
246 1 0.131568 0.66168 0.00149991 0.673584 -3.3092 0.28531 -0.00800858 -0.0466659 
650 1 0.24809 0.649452 0.102873 0.258766 -3.34745 0.111276 -0.00568968 -0.145218 
291 1 0.253472 0.690265 0.0547261 0.58655 -3.32727 0.293953 0.200196 -0.195511 
260 1 0.371115 0.676982 0.0542268 0.570913 -3.31505 0.42476 0.0504911 -0.341681 
654 1 0.31576 0.684178 0.101724 0.321897 -3.29672 -0.42414 -0.067306 -0.351642 
295 1 0.321513 0.72674 0.049926 0.563201 -3.37041 0.1398 -0.229323 0.470271 
693 1 0.263125 0.733658 0.104298 0.55978 -3.30637 0.0552177 -0.537071 -0.608025 
264 1 0.43584 0.71077 0.0490709 0.566633 -3.34088 -0.00500516 0.182388 -0.0676181 
263 1 0.485897 0.661037 0.0465795 0.846196 -3.26865 0.350188 -0.0325868 0.468337 
658 1 0.381801 0.720541 0.101247 0.593361 -3.3199 -0.394323 -0.381936 -0.280501 
661 1 0.434308 0.667502 0.100798 0.833929 -3.35127 -0.274076 0.187547 0.0244275 
662 1 0.497762 0.703901 0.0916327 1.81189 -3.32337 -0.0971912 -0.123062 0.904092 
262 1 0.49534 0.70004 -0.00053415 0.477877 -3.33153 0.159364 0.449733 -0.166383 
258 1 0.428292 0.669967 0.0018196 0.347214 -3.32661 -0.368724 -0.185007 -0.197487 
267 1 0.608616 0.643817 0.0499017 0.769379 -3.28178 -0.585206 -0.245747 -0.469445 
268 1 0.554793 0.69411 0.0480912 0.255587 -3.31605 0.127855 -0.115795 -0.206313 
666 1 0.614863 0.686363 0.093087 1.05063 -3.28328 -0.37424 -0.0966572 0.600253 
665 1 0.544811 0.651335 0.0950233 0.814677 -3.32022 0.233848 0.510395 0.250714 
307 1 0.620342 0.727666 0.0498426 0.661124 -3.26386 -0.125558 0.191104 -0.661029 
272 1 0.674431 0.671979 0.0472063 1.87452 -3.26947 0.348428 0.816071 -0.163537 
270 1 0.734286 0.671427 0.00112219 0.700033 -3.32886 -0.668079 -0.41839 -0.0498876 
311 1 0.73823 0.711772 0.046726 0.615475 -3.35248 0.107555 -0.0771142 0.374537 
670 1 0.734787 0.668438 0.100619 1.01803 -3.3515 -0.372013 0.326433 -0.18073 
709 1 0.678688 0.719533 0.0918956 1.61062 -3.31712 0.568881 0.0578815 0.743244 
276 1 0.789215 0.6608 0.0507946 0.350137 -3.34179 0.0259547 0.0991203 -0.310738 
315 1 0.858714 0.693062 0.0469879 1.46462 -3.25158 -0.785947 0.126677 0.252049 
674 1 0.844933 0.655028 0.100263 0.584051 -3.3291 0.274305 -0.475773 -0.325415 
713 1 0.799846 0.70305 0.0979611 0.536658 -3.35329 -0.199776 0.21202 0.133169 
313 1 0.800982 0.708105 -0.00102666 1.70642 -3.26978 -0.294502 -0.566434 0.246467 
280 1 0.905501 0.646016 0.0461236 0.615728 -3.2803 -0.224312 -0.328961 0.450287 
319 1 0.963978 0.682233 0.0494672 0.735431 -3.31158 0.525393 -0.00578075 -0.196613 
678 1 0.960521 0.643269 0.102118 0.995039 -3.26456 0.0122708 -0.290982 -0.78172 
717 1 0.908782 0.688304 0.0982796 0.698942 -3.31416 0.0147656 0.432759 0.283408 