ITEM: TIMESTEP
15750
ITEM: NUMBER OF ATOMS
4000
ITEM: BOX BOUNDS pp pp pp
3.1261244004011690e+00 3.7373875599598257e+01
-3.5336418998521717e+00 4.4033641899851176e+01
-3.0850021783449588e-01 4.0808500217835011e+01
ITEM: ATOMS id type xs ys zs c_csym c_peratom fx fy fz 
405 1 0.0338166 0.0609958 0.101512 0.415053 -3.31764 -0.151523 -0.269125 -0.212717 
7 1 0.0922837 0.0523627 0.0512598 0.352436 -3.33909 0.286869 0.115068 0.269363 
3 1 0.0302189 0.0172881 0.0478432 1.0741 -3.29841 -0.32148 0.0441431 1.00248 
2 1 0.0389799 0.0588855 0.999721 0.582835 -3.24381 -0.494964 0.6983 0.270387 
5 1 0.0842641 0.0132625 1.00116 0.999502 -3.23001 0.588444 -0.887448 0.0245632 
766 1 0.0890711 0.0107252 0.104377 0.718625 -3.35876 -0.565767 -0.0892455 -0.552213 
12 1 0.158137 0.0896784 0.0517084 0.395398 -3.36033 -0.0866211 -0.144706 0.368559 
11 1 0.210723 0.0378297 0.0507822 0.694201 -3.31339 -0.188472 0.240714 0.449977 
9 1 0.149742 0.0435797 0.00166981 0.850123 -3.31016 0.410922 0.517347 0.469606 
409 1 0.153203 0.0459811 0.0990945 0.73254 -3.3424 -0.195014 -0.0424336 0.0774508 
410 1 0.219424 0.080639 0.0986742 1.23141 -3.32116 -0.408891 -0.0263746 0.449354 
372 1 0.148122 0.00106969 0.0531221 0.937252 -3.32227 -0.633082 0.0761568 0.220329 
16 1 0.280004 0.0748717 0.0528085 1.6285 -3.21046 -0.903813 -0.324879 0.389116 
15 1 0.322233 0.0235322 0.05691 0.898542 -3.2855 0.181444 0.676484 -0.563378 
413 1 0.268439 0.0341163 0.107224 1.60921 -3.27591 -0.64798 -0.414159 -0.65022 
414 1 0.329589 0.06738 0.105305 0.430181 -3.2827 0.223617 0.281944 -0.244993 
20 1 0.390075 0.0635245 0.0532558 1.18239 -3.31008 -0.941239 -0.378706 -0.0100909 
19 1 0.43594 0.0138343 0.050165 0.442126 -3.29556 -0.62654 -0.583262 -0.056044 
418 1 0.441879 0.0525113 0.101954 0.855446 -3.2263 0.224885 0.429756 0.444277 
17 1 0.372802 0.0209231 0.00259002 0.602069 -3.3915 -0.0471625 -0.131849 0.196401 
421 1 0.492589 0.00229017 0.100347 0.885584 -3.29884 -0.0747642 0.343406 0.340316 
417 1 0.382402 0.018986 0.10339 0.40839 -3.27101 -0.235044 -0.172092 -0.034838 
24 1 0.491369 0.0501577 0.0529935 1.17995 -3.24695 0.860013 0.154911 -0.337342 
28 1 0.611658 0.0353581 0.0518402 0.400704 -3.33364 -0.0841016 -0.312801 0.0569258 
22 1 0.5534 0.0451439 0.00344239 0.584499 -3.30912 -0.0301958 -0.5822 -0.347703 
65 1 0.622094 0.0789975 1.00171 0.657305 -3.25547 -0.526796 -0.649657 -0.149532 
23 1 0.543234 -0.000130968 0.051246 0.742927 -3.31912 0.4424 -0.0331834 -0.211908 
422 1 0.55574 0.039805 0.100331 0.459108 -3.34521 -0.152341 0.347602 -0.0435281 
32 1 0.724679 0.0184437 0.0474307 1.2504 -3.31312 0.514084 0.31849 0.482251 
67 1 0.674737 0.0693828 0.0526724 0.582148 -3.29329 0.567987 -0.424845 -0.355702 
469 1 0.73219 0.060732 0.0990037 0.646674 -3.34452 0.29498 -0.140204 0.0114728 
426 1 0.66879 0.0249394 0.102532 0.590233 -3.30833 0.299032 0.645153 -0.145021 
465 1 0.621598 0.0777209 0.102212 0.563267 -3.31959 -0.557672 -0.277105 -0.106597 
30 1 0.734614 0.0624699 1.00024 0.898058 -3.36046 0.105222 -0.142219 0.181311 
36 1 0.793033 0.051171 0.0487875 0.371922 -3.37819 -0.0570661 0.0585253 0.157116 
35 1 0.841934 1.00017 0.052433 0.519854 -3.3438 0.16809 -0.0445568 -0.394856 
434 1 0.852566 0.0409832 0.102354 0.997702 -3.30151 -0.296338 0.639859 -0.0948331 
430 1 0.783878 0.0125775 0.102459 0.601852 -3.34704 0.0418816 -0.0626057 -0.0903158 
33 1 0.789229 0.00766293 0.0024823 1.05591 -3.26523 -0.336006 -0.119086 0.0316675 
4 1 0.978437 0.0702373 0.0515001 0.589086 -3.39214 -0.362797 -0.218806 -0.1763 
40 1 0.908047 0.0353514 0.0485427 0.545523 -3.34295 0.196409 0.302815 0.118591 
401 1 0.964779 0.0273577 0.100507 0.517735 -3.32111 0.492724 0.134238 -0.17468 
437 1 0.900536 0.994937 0.0988963 0.511504 -3.24188 0.196684 -0.255031 0.148358 
438 1 0.916688 0.0750573 0.100471 0.703064 -3.34539 0.0866433 0.279322 -0.0384631 
38 1 0.971832 0.0274511 0.00124782 0.33894 -3.30129 0.103907 0.356018 -0.109323 
77 1 0.916896 0.0793745 0.999148 0.694243 -3.32294 0.315559 -0.584015 0.119476 
8 1 0.0412052 0.103611 0.0473838 1.16552 -3.30171 0.16554 -0.159473 0.187562 
47 1 0.104438 0.140011 0.0492194 1.0788 -3.34383 0.582346 -0.082196 0.27229 
406 1 0.0960538 0.0929091 0.102236 1.41033 -3.2913 0.632398 0.333364 -0.241107 
445 1 0.0522226 0.141101 0.0989731 2.28016 -3.28499 0.177963 0.755253 0.439425 
52 1 0.173617 0.174987 0.0515874 0.495042 -3.30424 -0.119889 0.0151918 0.12936 
51 1 0.225993 0.122207 0.0545088 1.66883 -3.26279 -0.327834 0.333009 -0.102233 
449 1 0.160912 0.135612 0.101197 1.61013 -3.32769 0.112253 -0.687075 -0.214008 
450 1 0.227726 0.167425 0.100098 0.768248 -3.3245 -0.108195 0.313486 0.260202 
49 1 0.171346 0.129973 0.00458243 1.74948 -3.28952 -0.407612 0.0439082 -0.043465 
55 1 0.333313 0.112965 0.053665 0.411808 -3.31881 0.586317 0.341557 -0.407912 
56 1 0.281703 0.160955 0.0516854 0.757112 -3.30193 0.354635 0.606581 0.108582 
453 1 0.280578 0.117128 0.103664 0.534924 -3.26637 -0.417077 0.0233637 0.041347 
454 1 0.33867 0.1545 0.102158 0.478211 -3.3126 0.331271 0.537551 -0.500455 
59 1 0.449599 0.0994929 0.0532677 0.543437 -3.26036 -0.0237114 0.224451 -0.272992 
60 1 0.398238 0.151824 0.0496826 0.682865 -3.37176 -0.353478 -0.251173 0.264597 
58 1 0.458064 0.140865 0.00322631 0.95395 -3.35142 -0.195743 0.130949 -0.337527 
458 1 0.453738 0.142196 0.0986737 0.457095 -3.34292 -0.0100931 0.217795 0.407224 
457 1 0.390879 0.104132 0.100239 0.459744 -3.30687 0.0674615 0.359661 0.0185417 
63 1 0.558236 0.0835838 0.0503385 0.792025 -3.33816 0.50478 0.462845 0.617045 
61 1 0.506939 0.0929879 0.00235651 0.62091 -3.33671 -0.537815 0.0752452 -0.209127 
64 1 0.511513 0.136848 0.0532787 0.827992 -3.30609 0.4237 -0.0937496 -0.295148 
103 1 0.584341 0.167247 0.0510942 1.46823 -3.35132 -0.359761 0.15767 -0.0072489 
461 1 0.502698 0.0914749 0.102371 0.27139 -3.35291 0.425094 0.04122 0.13742 
462 1 0.567186 0.128801 0.101576 0.805391 -3.38844 0.420153 -0.293171 -0.0595306 
68 1 0.628911 0.116405 0.0500481 0.770386 -3.29614 -0.493603 0.560456 0.366382 
72 1 0.693978 0.152869 0.0548093 0.61048 -3.33389 -0.0979475 0.407499 -0.491455 
71 1 0.745862 0.105208 0.0510705 1.18714 -3.24145 -0.564352 -0.888188 -0.122109 
505 1 0.638987 0.163702 0.105014 1.22223 -3.31869 -0.36866 -0.565597 -0.225354 
466 1 0.685576 0.110201 0.0974407 0.951291 -3.26598 0.00738516 0.224067 0.776367 
75 1 0.854549 0.0895552 0.0505529 2.54042 -3.2132 0.646463 -1.19473 -0.282299 
473 1 0.802664 0.0914344 0.0974647 1.34705 -3.30333 -0.170394 0.189319 0.738615 
76 1 0.808791 0.134343 0.0489867 0.572641 -3.25901 0.36108 0.769749 0.217651 
73 1 0.803808 0.0922159 0.996323 1.06935 -3.284 -0.386855 -0.312458 0.464173 
470 1 0.750301 0.143897 0.101294 0.650452 -3.31567 0.497189 0.14456 0.0987271 
477 1 0.872081 0.126857 0.0979173 1.13685 -3.30602 -0.49842 0.232752 0.56477 
74 1 0.868087 0.125942 1.00076 0.178356 -3.31042 0.107281 0.452823 -0.202408 
43 1 0.990813 0.151312 0.053417 0.843364 -3.34325 0.108106 -0.0151314 -0.259569 
79 1 0.924282 0.117162 0.0491184 0.949195 -3.30182 0.552389 0.178449 0.198001 
80 1 0.879216 0.170799 0.0527561 0.833095 -3.32848 -0.199408 -0.291383 -0.481879 
402 1 0.987568 0.112062 0.104925 1.3933 -3.27513 -0.597231 -0.281245 -0.543211 
441 1 0.935433 0.161206 0.10276 0.35508 -3.33795 0.070829 0.097522 0.0850502 
41 1 0.986367 0.111379 0.997397 0.641005 -3.34577 -0.157738 -0.217271 0.174843 
78 1 0.935375 0.160883 0.00191287 0.263347 -3.35874 0.00740576 -0.132836 0.0294796 
446 1 0.114785 0.182442 0.101369 0.50158 -3.26681 -0.764483 -0.235342 0.0707934 
48 1 0.0568553 0.189534 0.0533942 0.587279 -3.29298 0.122236 -0.0852792 0.0286336 
42 1 0.00470872 0.193863 0.00438023 1.19271 -3.27504 -0.761261 0.318392 -0.350913 
83 1 0.00497045 0.241702 0.0495391 0.999321 -3.27937 -0.0263639 -0.0547563 0.62173 
485 1 0.0583012 0.234921 0.100462 1.26778 -3.32287 0.185884 -0.130216 0.273312 
85 1 0.0627484 0.232667 0.00540347 0.723745 -3.28121 0.353633 -0.0404313 -0.485186 
442 1 1.00339 0.192731 0.101756 1.80971 -3.33189 -0.369911 0.367424 0.207178 
46 1 0.118479 0.181638 0.0017217 0.716132 -3.29992 -0.254857 0.282328 0.335683 
87 1 0.121383 0.223448 0.0538506 0.581914 -3.32606 -0.163923 0.464451 -0.363834 
91 1 0.236463 0.214984 0.056333 1.60075 -3.2804 -0.197267 -0.817123 -0.719336 
92 1 0.18733 0.257707 0.0533604 1.52821 -3.26995 -0.646363 0.827528 -0.153021 
86 1 0.124523 0.267711 -0.00233814 1.22154 -3.31114 0.296821 0.205791 0.653838 
489 1 0.172616 0.219182 0.103046 1.04412 -3.28734 0.931227 0.143314 0.287379 
89 1 0.178743 0.220278 0.00392857 0.551474 -3.30689 -0.153533 -0.000990474 -0.231929 
486 1 0.124248 0.268417 0.107708 1.98666 -3.31864 0.26746 0.203249 -0.886086 
490 1 0.243365 0.258303 0.100376 1.00368 -3.27199 -0.121684 -0.552855 0.646093 
95 1 0.345564 0.200026 0.0498871 0.393407 -3.3429 0.200362 -0.00569696 0.565716 
96 1 0.298544 0.249133 0.0494229 0.488362 -3.3101 0.444329 -0.0535435 0.0793108 
493 1 0.288798 0.206296 0.101926 0.287543 -3.33927 0.289426 -0.0627474 0.147006 
94 1 0.351085 0.242364 -0.00478065 1.66728 -3.27813 0.598563 0.350705 0.525426 
494 1 0.353674 0.239965 0.10261 0.32153 -3.35524 -0.0079552 0.171954 -0.0243373 
99 1 0.46039 0.186263 0.0472511 0.9432 -3.24362 -0.0603988 -0.470551 -0.0523786 
100 1 0.411385 0.234729 0.0542462 1.0142 -3.25843 -0.814619 0.113898 -0.983227 
139 1 0.479756 0.268916 0.053769 1.49858 -3.33656 -0.0439928 0.0239473 -0.33428 
497 1 0.4034 0.193408 0.106845 2.15237 -3.28977 -0.283244 -0.554904 -0.70776 
97 1 0.401314 0.194105 -0.000203551 0.65774 -3.30263 0.238856 -0.0100086 0.137642 
98 1 0.466874 0.229551 0.00191949 1.33368 -3.2583 -0.0525218 -0.258272 -0.0391038 
498 1 0.464822 0.224152 0.0946354 3.22754 -3.16729 1.1618 0.577444 1.0783 
104 1 0.525356 0.216758 0.0454297 1.6679 -3.31433 0.790398 0.546898 0.625052 
108 1 0.59441 0.25063 0.0470205 0.565801 -3.36429 -0.190864 -0.233187 0.158741 
502 1 0.584965 0.208643 0.101683 0.911642 -3.31218 0.266772 0.22646 -0.404564 
501 1 0.516947 0.18017 0.0990931 1.28837 -3.29348 0.206618 -0.532582 -0.119084 
541 1 0.538277 0.261265 0.105135 2.89374 -3.24966 0.0474614 -0.667973 -1.15949 
107 1 0.646798 0.204005 0.0549865 0.942711 -3.33548 -0.0856167 -0.191281 -0.591875 
509 1 0.705266 0.197678 0.105442 1.00461 -3.34042 -0.0313464 -0.16486 -0.0725224 
112 1 0.713387 0.234984 0.0551944 0.770748 -3.30127 0.0232655 -0.271375 -0.349864 
506 1 0.647195 0.245628 0.101537 1.53989 -3.23932 0.234734 -0.346557 0.0512254 
109 1 0.704798 0.193436 0.999696 0.435195 -3.32783 -0.238503 0.158922 0.530068 
115 1 0.828446 0.219093 0.0526011 0.355142 -3.30655 -0.619034 -0.298025 -0.615071 
111 1 0.762604 0.186553 0.0525565 0.230558 -3.35819 -0.163298 -0.0725778 -0.143323 
517 1 0.835949 0.258711 0.099348 0.555182 -3.25862 0.101004 0.461617 0.0435667 
474 1 0.820961 0.176188 0.100146 0.551666 -3.37125 -0.167506 -0.3483 0.185765 
513 1 0.772199 0.229119 0.105287 0.977481 -3.18504 -0.813293 -0.673428 -0.907412 
110 1 0.76941 0.229531 0.00173679 0.850947 -3.35647 0.273655 -0.235656 0.059873 
44 1 0.947414 0.202455 0.0518584 0.972152 -3.30023 -0.266973 -0.182258 0.175468 
81 1 0.949934 0.243171 0.00362281 0.840607 -3.31165 -0.0411753 0.36897 -0.395398 
119 1 0.89278 0.247237 0.0502719 2.00693 -3.2936 0.316753 0.684569 -0.218363 
478 1 0.884314 0.209698 0.101434 0.242416 -3.28543 0.263209 0.0657476 0.290391 
481 1 0.947589 0.245408 0.101808 0.374242 -3.36871 0.434968 0.118179 -0.00815311 
88 1 0.0699804 0.275226 0.0522204 0.381912 -3.3651 0.35445 0.367775 0.106884 
123 1 0.0190184 0.326793 0.0523205 0.194796 -3.3395 0.25492 -0.170237 0.057747 
128 1 0.0854042 0.361473 0.0472969 0.37795 -3.36414 0.00762636 0.160946 0.36961 
482 1 0.0120514 0.286001 0.103822 0.671587 -3.34311 -0.16219 -0.476186 -0.242788 
525 1 0.0760269 0.320571 0.101681 0.165605 -3.34275 0.16984 -0.0381319 -0.0428317 
82 1 0.0128188 0.28491 0.00369684 0.444146 -3.30583 0.0504085 -0.44302 0.0137018 
125 1 0.0762191 0.319408 -0.000758023 0.302194 -3.28742 0.0782982 0.00423516 0.451059 
127 1 0.136047 0.3125 0.0498598 0.47031 -3.35672 -0.45538 -0.497461 0.206137 
132 1 0.200023 0.347495 0.0458236 1.31876 -3.27924 0.0319974 0.0477432 0.528297 
526 1 0.144898 0.353523 0.101499 0.867485 -3.33678 -0.38753 0.256449 -0.294402 
529 1 0.193485 0.303814 0.0961937 1.26475 -3.28272 -0.670976 -0.0949312 0.314165 
131 1 0.254361 0.296727 0.0529988 1.23193 -3.25935 -0.211911 0.229212 -0.737686 
136 1 0.318079 0.332266 0.0495654 0.908686 -3.25772 -0.774794 0.356869 0.290587 
533 1 0.308355 0.290021 0.102618 0.791289 -3.30344 0.143034 0.270212 0.275364 
130 1 0.257222 0.339189 0.00236237 0.722895 -3.34198 0.0401112 0.168636 -0.159023 
135 1 0.360403 0.28703 0.0546171 1.49897 -3.26787 0.402991 -0.729722 -0.596024 
534 1 0.37585 0.327647 0.105343 1.71067 -3.30955 -0.50997 -0.471574 -0.210042 
530 1 0.253286 0.338831 0.0982002 1.70906 -3.28993 0.716432 0.960869 -0.257656 
140 1 0.427262 0.318773 0.0500904 0.583127 -3.31275 0.512989 -0.0950236 0.0470467 
538 1 0.490007 0.309496 0.101172 0.592158 -3.30961 -0.727597 0.127066 -0.12461 
577 1 0.440386 0.360507 0.100094 0.72685 -3.25481 -0.202052 -0.346994 0.44544 
144 1 0.497223 0.350235 0.0516921 0.471152 -3.36189 0.240862 -0.0601599 -0.287592 
137 1 0.418736 0.276667 0.00346588 0.792397 -3.38271 -0.106133 -0.0557943 0.04327 
537 1 0.417865 0.276106 0.099706 0.590775 -3.34174 0.314623 0.217414 0.616083 
143 1 0.546681 0.298561 0.0443129 1.47948 -3.3382 -0.082786 0.241643 0.541743 
545 1 0.602991 0.291751 0.0953689 1.20934 -3.26679 -0.173011 0.261907 0.32399 
148 1 0.613086 0.3336 0.0499482 0.245891 -3.34619 -0.0271892 -0.108416 -0.23692 
542 1 0.553774 0.342806 0.101759 0.34024 -3.31585 0.00751337 0.47532 -0.379562 
147 1 0.665329 0.280837 0.0494374 1.47548 -3.29522 -0.415491 0.645647 0.0758978 
151 1 0.72724 0.319098 0.050086 0.521049 -3.36004 -0.228402 -0.276558 0.21662 
549 1 0.665794 0.325441 0.0997186 0.725112 -3.32468 0.590449 0.0319886 0.105839 
510 1 0.714033 0.27411 0.104704 1.75085 -3.31863 0.545345 0.602469 -0.133435 
553 1 0.733432 0.359016 0.0992911 0.657391 -3.35459 0.356215 0.0101067 0.292341 
116 1 0.776588 0.270071 0.0526778 0.561917 -3.30586 0.0302906 -0.273296 0.0155519 
120 1 0.846807 0.299905 0.0454525 2.51779 -3.24423 -0.333974 -0.0675478 0.775353 
153 1 0.785486 0.307218 1.00316 1.37721 -3.31688 -0.245258 0.412517 -0.628879 
155 1 0.793904 0.350872 0.0488281 0.691454 -3.32483 0.201997 0.0253805 0.313489 
157 1 0.851482 0.344923 1.00165 0.639769 -3.31093 -0.299947 0.267098 -0.328777 
514 1 0.790851 0.307519 0.100894 2.02755 -3.33284 -0.698318 0.385584 -0.0381164 
557 1 0.846282 0.347542 0.100499 0.83791 -3.30849 0.103302 0.0429587 0.151705 
84 1 0.952369 0.290003 0.0527375 0.583342 -3.34561 0.242075 -0.09131 -0.166823 
159 1 0.898769 0.340453 0.0529412 2.32953 -3.29221 1.02531 0.123451 -0.11196 
121 1 0.965016 0.332076 0.00395887 0.655351 -3.26432 -0.562562 0.314132 0.309065 
518 1 0.896988 0.29408 0.0980418 0.704027 -3.30581 -0.107746 0.238635 0.297662 
118 1 0.902689 0.297898 1.0001 0.799949 -3.29847 -0.183814 -0.445878 0.0442313 
521 1 0.960575 0.331493 0.102224 0.431996 -3.36229 0.0373987 0.32968 -0.132402 
122 1 0.0234647 0.369928 0.000233272 0.466902 -3.24961 0.357207 -0.0404901 0.42894 
522 1 0.0297624 0.369538 0.0995006 0.393598 -3.33161 -0.176054 0.0688509 0.14742 
163 1 0.0376672 0.414157 0.0470385 0.766271 -3.24745 -0.918134 -0.575622 0.222856 
168 1 0.0984634 0.444738 0.0465418 0.815314 -3.29016 0.75449 0.621266 -0.251932 
565 1 0.093425 0.405375 0.0990915 0.240942 -3.31034 -0.231147 -0.558151 -0.0440017 
167 1 0.152595 0.396582 0.0479594 0.742388 -3.3183 -0.61286 -0.123342 0.357902 
172 1 0.214793 0.430652 0.0513901 0.44813 -3.29864 0.00519834 0.159154 0.0895165 
569 1 0.204651 0.39204 0.106079 2.39186 -3.32663 0.419813 -0.079425 -0.672801 
566 1 0.152113 0.440468 0.0985754 0.938423 -3.30469 0.719197 0.215076 0.0294348 
169 1 0.204067 0.391817 0.999682 0.775625 -3.29167 0.593844 -0.317978 -0.318102 
171 1 0.264277 0.385584 0.0501431 1.05537 -3.33632 -0.0169121 -0.585568 -0.0132717 
176 1 0.337176 0.414297 0.0471335 2.11866 -3.24649 -0.0642606 0.504386 0.735351 
573 1 0.327675 0.376567 0.0988545 1.25179 -3.30521 -0.854814 -0.278881 0.339685 
570 1 0.276645 0.421383 0.0998011 1.44153 -3.36381 -0.0630084 0.35909 0.338728 
175 1 0.379436 0.36476 0.0526811 1.25629 -3.22365 0.512592 0.451366 -0.410907 
170 1 0.277906 0.428224 -2.29189e-05 1.66329 -3.26907 -0.782566 -0.532529 0.146906 
179 1 0.444585 0.397085 0.0516976 1.60224 -3.31726 0.341441 0.780907 -0.273359 
180 1 0.401982 0.450247 0.0457084 2.00497 -3.30458 -0.204463 -0.0513917 0.53177 
578 1 0.453096 0.446153 0.103167 1.27028 -3.33224 -0.0546617 -0.365074 -0.242774 
574 1 0.387534 0.411615 0.10741 2.42841 -3.27645 0.464022 0.128728 -0.84101 
138 1 0.44487 0.358332 0.998454 0.962822 -3.34971 -0.44644 -0.0894222 0.291047 
178 1 0.463169 0.437353 -0.00207638 1.83163 -3.33095 -0.131842 0.401493 0.0734892 
183 1 0.565218 0.383222 0.0485962 0.641186 -3.32877 -0.174373 -0.306077 0.600705 
184 1 0.518847 0.430691 0.0522316 1.56791 -3.33151 -0.421566 0.339072 -0.365098 
187 1 0.624165 0.421662 0.0518026 1.89809 -3.28377 0.454924 -0.384196 -0.214337 
581 1 0.50078 0.395932 0.10218 0.762718 -3.30461 0.527057 -0.0568122 -0.0270895 
585 1 0.570784 0.429283 0.104017 1.28659 -3.28046 -0.0277489 -0.514436 -0.225634 
546 1 0.620872 0.375855 0.10223 0.585246 -3.29495 -0.429502 -0.10165 -0.528212 
185 1 0.620518 0.374407 0.000343048 0.594975 -3.30454 0.363688 0.381353 -0.193644 
152 1 0.678705 0.368767 0.0475876 0.598968 -3.32366 -0.27297 -0.170704 0.337811 
150 1 0.7368 0.359927 0.000953882 0.219368 -3.27692 0.166308 -0.291353 -0.027563 
550 1 0.68281 0.408556 0.0966637 1.35144 -3.3172 0.639629 0.385964 -0.0518629 
156 1 0.748336 0.400587 0.0511602 1.84394 -3.28545 -0.677584 0.491739 0.220722 
593 1 0.744232 0.449014 0.100115 0.730799 -3.34361 -0.332062 -0.224559 -0.242489 
193 1 0.751259 0.448801 0.00275492 0.744521 -3.37417 0.105564 -0.344915 -0.217137 
160 1 0.854937 0.3925 0.0456025 1.62034 -3.28679 0.231551 -0.0446114 0.786237 
195 1 0.80515 0.443533 0.054819 1.04037 -3.2924 -0.197031 -0.271246 -0.618583 
197 1 0.861765 0.436794 0.00140502 0.952251 -3.25019 0.166564 -0.421657 0.465782 
554 1 0.800076 0.39595 0.10054 0.966349 -3.33377 -0.0964829 0.0278468 0.00380481 
597 1 0.858277 0.436952 0.09943 0.771012 -3.30334 0.728045 -0.410891 -0.0185484 
124 1 0.973194 0.375582 0.0532306 1.0572 -3.35464 -0.37388 0.0670122 -0.232295 
158 1 0.914295 0.381347 0.00147065 0.583151 -3.31805 0.133137 0.00915599 0.316114 
199 1 0.923897 0.426713 0.0483155 1.17311 -3.33231 -0.50289 0.145059 0.0889536 
561 1 0.978442 0.422569 0.095962 0.560096 -3.33044 -0.0444358 -0.381324 0.273401 
558 1 0.910414 0.384993 0.0952028 1.00062 -3.34161 0.167708 0.0708882 0.487382 
161 1 0.976549 0.417544 -0.00174539 0.948773 -3.2811 0.225414 0.553864 0.527326 
203 1 0.0475369 0.49766 0.046743 0.696083 -3.34114 0.286458 0.402788 0.175167 
605 1 0.108355 0.492387 0.0969518 0.836893 -3.26748 -0.592395 -0.438432 -0.00485956 
602 1 0.0552703 0.543313 0.0981496 0.457233 -3.33191 0.0271722 -0.109106 -0.14199 
208 1 0.114487 0.533627 0.0524872 0.75644 -3.32339 -0.0243695 0.0573413 -0.528771 
562 1 0.0439426 0.45564 0.0946946 0.808243 -3.334 0.00774657 0.118194 0.549083 
202 1 0.0598555 0.539073 0.99759 0.79404 -3.36331 -0.160759 0.454938 0.289176 
207 1 0.165746 0.480169 0.051143 0.343342 -3.3239 -0.0196572 0.0491648 -0.351305 
212 1 0.236579 0.51291 0.0528366 1.33443 -3.29928 -0.455429 0.655454 -0.397986 
609 1 0.224485 0.472862 0.10025 0.550758 -3.28626 -0.474723 -0.221639 0.232482 
606 1 0.175433 0.522284 0.0982168 0.80825 -3.30164 0.0663009 0.39201 0.0986911 
209 1 0.222743 0.470754 0.00176839 1.19165 -3.31107 0.190718 0.766771 -0.176508 
211 1 0.278109 0.46564 0.053356 1.20404 -3.27789 0.904917 -0.220551 -0.195304 
215 1 0.34652 0.500753 0.0526523 0.579107 -3.39165 0.282676 -0.12821 -0.159586 
613 1 0.34229 0.459105 0.10191 0.643223 -3.37459 -0.133972 -0.0914799 -0.135116 
213 1 0.289523 0.509007 0.999892 0.295836 -3.31533 -0.233325 -0.281688 0.108845 
610 1 0.289228 0.51013 0.103777 0.654547 -3.27052 0.0932119 -0.151246 -0.339446 
614 1 0.354461 0.543229 0.103095 0.565638 -3.22764 -0.152333 -0.368172 -0.16244 
174 1 0.340852 0.458026 0.00425312 1.25314 -3.27793 0.414814 0.773553 -0.379741 
219 1 0.46317 0.483078 0.0475463 1.04524 -3.27708 0.259463 -0.373109 0.302305 
621 1 0.47407 0.521385 0.103424 1.22646 -3.32059 0.0563537 0.288152 -0.378345 
220 1 0.418227 0.530948 0.0497933 1.29722 -3.30541 -0.572437 -0.000243951 0.60356 
617 1 0.406923 0.493502 0.105571 1.14087 -3.26294 -0.395844 -0.307311 -0.629719 
217 1 0.406911 0.496924 0.994177 2.93427 -3.22995 -0.56545 -0.779562 0.705013 
188 1 0.580559 0.470778 0.0490239 0.879544 -3.29206 -0.281702 -0.581207 0.156189 
582 1 0.521339 0.4737 0.10108 0.742975 -3.32229 0.0937058 0.36105 -0.0706963 
223 1 0.52803 0.514799 0.049366 0.585289 -3.29887 0.132919 0.360238 0.0967282 
586 1 0.587659 0.509241 0.0990826 0.307869 -3.34869 0.0586987 -0.106518 0.220019 
221 1 0.522455 0.475812 0.999004 0.51658 -3.35852 -0.0906941 -0.254961 -0.266174 
191 1 0.690923 0.45638 0.0468505 1.14848 -3.3296 0.180331 -0.639803 0.0321606 
192 1 0.645037 0.502096 0.0469011 0.346545 -3.24031 -0.0260658 0.100887 0.0344459 
231 1 0.703516 0.538756 0.0450019 1.3688 -3.26363 0.075146 0.666223 0.691951 
629 1 0.654202 0.547698 0.0980913 0.868034 -3.30491 -0.643675 -0.351612 -0.100959 
589 1 0.638599 0.458925 0.100411 0.898673 -3.29617 -0.214398 0.360387 -0.168533 
590 1 0.69856 0.498125 0.0968618 0.390246 -3.35204 0.300422 -0.000476371 0.351008 
196 1 0.755734 0.491356 0.0497599 0.238838 -3.27727 0.00481406 -0.0169993 0.104553 
194 1 0.816543 0.484862 1.00338 0.72007 -3.31098 -0.484399 0.0453573 -0.127269 
235 1 0.817394 0.529537 0.0513745 0.58506 -3.30124 0.47718 -0.0707914 -0.180082 
233 1 0.76384 0.53466 0.00542348 2.15944 -3.17671 0.411895 0.0811043 -1.04661 
200 1 0.869304 0.481248 0.0545359 1.33119 -3.29196 -0.0890349 -0.496716 -0.493334 
594 1 0.806501 0.485729 0.100486 0.936529 -3.29686 0.402916 0.277613 0.177457 
633 1 0.764264 0.535569 0.100836 0.683451 -3.31663 -0.297805 -0.0784555 -0.408464 
637 1 0.877606 0.524014 0.0955833 0.935734 -3.28553 -0.366519 0.0661803 0.781936 
201 1 0.989693 0.507798 0.996678 0.443728 -3.35187 -0.152406 -0.0748833 0.41308 
164 1 0.982155 0.467793 0.0506693 1.43474 -3.29633 0.0144347 -0.358692 -0.411912 
198 1 0.923336 0.470308 0.00247128 0.988411 -3.33823 0.48728 0.504978 -0.297756 
239 1 0.931795 0.516825 0.0475327 0.293205 -3.29927 0.382068 -0.215787 -0.370374 
601 1 0.994158 0.507827 0.101301 1.18579 -3.30716 0.00479244 -0.00773904 -0.391228 
598 1 0.927868 0.474343 0.0988567 0.505279 -3.2773 -0.300311 -0.376288 -0.0931586 
243 1 0.0621431 0.582976 0.0475033 0.407476 -3.34298 0.496527 0.239103 -0.0959619 
642 1 0.0720266 0.624102 0.10121 0.210292 -3.3485 -0.261065 0.0195497 -0.340104 
248 1 0.128786 0.617547 0.0493613 0.21532 -3.3626 -0.0483821 -0.0666059 0.151126 
645 1 0.122912 0.574924 0.100575 0.307816 -3.32075 0.0357201 0.230699 -0.158395 
245 1 0.125293 0.577221 0.999751 0.63491 -3.27063 -0.93358 -0.739616 0.00178937 
247 1 0.180546 0.566379 0.0488469 0.400225 -3.3026 0.0755684 -0.0283677 0.43296 
649 1 0.237068 0.559168 0.102129 0.949735 -3.34936 0.276933 -0.197466 -0.114796 
251 1 0.245582 0.598882 0.0521577 0.378131 -3.37037 0.332491 0.208961 -0.148171 
646 1 0.188621 0.609532 0.101072 0.388799 -3.31233 -0.373544 -0.0585414 -0.0743263 
249 1 0.187026 0.607167 3.9571e-05 0.437013 -3.27718 0.819038 0.719961 0.0244814 
216 1 0.30064 0.549053 0.0517611 0.782618 -3.31751 -0.587973 0.142258 -0.0579378 
255 1 0.362239 0.582634 0.0521516 0.435788 -3.26737 -0.175741 -0.0669783 -0.535378 
256 1 0.311474 0.634302 0.0500297 0.648653 -3.36168 0.0213251 -0.217217 0.162625 
653 1 0.307885 0.592389 0.100912 0.612915 -3.27983 -0.783017 -0.255475 -0.00272965 
657 1 0.371042 0.620381 0.104633 0.9585 -3.25557 0.288075 0.650316 -0.193668 
214 1 0.349396 0.545044 0.997343 2.51908 -3.26688 0.784188 -0.103977 0.43155 
253 1 0.30483 0.591821 0.993704 1.757 -3.22336 -0.491763 0.254976 0.878802 
254 1 0.370003 0.621922 -0.000147136 0.645305 -3.28289 0.477907 0.307405 0.394734 
259 1 0.425851 0.612454 0.0539862 1.33147 -3.20187 0.147728 0.0367689 -0.736822 
224 1 0.485137 0.567521 0.0478351 2.1605 -3.25316 -0.805404 -0.549753 0.529392 
618 1 0.417897 0.571937 0.0999753 1.12609 -3.23525 0.867202 0.231813 0.0790737 
622 1 0.482946 0.606299 0.10129 0.717993 -3.31781 0.535555 0.0439312 0.0654997 
227 1 0.597141 0.548037 0.0496882 1.28348 -3.31633 -0.176935 0.371524 -0.0417837 
228 1 0.545521 0.598062 0.0510846 0.891438 -3.22965 -0.0172667 0.501391 -0.224297 
625 1 0.538788 0.555145 0.100839 0.603328 -3.3228 -0.145613 0.246073 -0.0579165 
626 1 0.596537 0.594378 0.100335 0.718373 -3.30937 0.724744 -0.048554 -0.238677 
229 1 0.64715 0.547998 0.995319 1.20425 -3.34648 0.185756 -0.271281 0.217698 
232 1 0.65508 0.588912 0.0439088 1.25915 -3.33621 0.17138 0.156827 0.770648 
230 1 0.716015 0.585207 0.999767 0.995206 -3.26378 -0.530554 -0.449871 -0.422607 
271 1 0.720791 0.62827 0.0441979 1.03232 -3.31896 -0.165236 -0.00951597 0.864031 
269 1 0.661061 0.63528 0.00170938 0.601441 -3.30431 -0.0181546 0.114082 -0.423344 
630 1 0.708702 0.585639 0.0987379 1.25243 -3.30186 0.837265 0.289419 -0.843868 
669 1 0.659275 0.635196 0.0990818 0.797112 -3.34887 0.50719 -0.281859 -0.332471 
236 1 0.768233 0.578456 0.0476324 0.324649 -3.25431 -0.22185 -0.0487102 0.7009 
234 1 0.817532 0.574665 0.996448 2.27192 -3.26887 1.26812 -0.270394 0.167532 
275 1 0.829505 0.615229 0.0465549 0.724995 -3.34886 0.832206 0.209782 -0.309026 
634 1 0.825982 0.571872 0.0971487 0.427056 -3.32384 0.399157 0.335591 -0.119026 
673 1 0.778509 0.622163 0.0939633 0.714235 -3.34196 -0.292751 0.0115378 0.608653 
204 1 -0.00434903 0.55261 0.0453196 1.05309 -3.29543 0.206935 -0.7628 -0.106768 
641 1 0.00481258 0.592659 0.0944177 0.663852 -3.2676 0.228428 0.107879 0.544761 
240 1 0.883283 0.565298 0.0440109 0.463193 -3.36226 -0.194583 0.323782 0.313193 
279 1 0.951127 0.601197 0.0470971 0.655356 -3.22091 -0.675802 -0.320577 -0.398905 
638 1 0.942378 0.555849 0.0949925 0.852725 -3.31505 -0.0733774 0.489401 0.568492 
677 1 0.896856 0.609348 0.0947951 1.18652 -3.33076 -0.784402 -0.569809 0.260291 
244 1 0.0119655 0.635054 0.045288 0.582517 -3.26993 0.673651 0.20846 0.13018 
283 1 0.0786591 0.666279 0.0469994 0.441963 -3.35109 0.127558 -0.0432302 0.293733 
284 1 0.0357771 0.715188 0.046486 1.09568 -3.36376 -0.339562 0.354121 0.370788 
681 1 0.0221771 0.674713 0.101935 0.57285 -3.35529 0.288889 0.0249721 -0.224821 
682 1 0.0934237 0.708786 0.102225 0.772721 -3.364 -0.26999 -0.199271 -0.282274 
685 1 0.134152 0.657249 0.104622 1.21848 -3.33501 0.498022 0.361698 -0.341483 
281 1 0.0193576 0.678191 0.995501 0.70827 -3.33104 0.309366 -0.2079 0.104325 
285 1 0.090539 0.709387 0.996247 0.266598 -3.27218 -0.274153 -0.22485 0.128974 
252 1 0.192578 0.652399 0.0530388 0.758841 -3.31759 0.124666 -0.439171 -0.287953 
287 1 0.146607 0.700649 0.0507344 0.316259 -3.32339 -0.125063 0.00774664 0.0958903 
689 1 0.204673 0.692444 0.099223 0.634596 -3.2783 -0.444073 -0.19514 0.321417 
650 1 0.250837 0.641876 0.102603 0.611816 -3.27175 0.114389 -0.0833547 -0.176604 
289 1 0.20667 0.692409 0.00285621 0.601223 -3.30017 -0.387434 -0.0366156 -0.721577 
246 1 0.136432 0.659692 0.999404 0.233914 -3.34967 0.313782 -0.0168328 -0.0179676 
291 1 0.260505 0.684906 0.049786 0.718801 -3.259 0.512046 -0.437928 0.363632 
295 1 0.33255 0.711296 0.0546058 3.21723 -3.35754 -0.0951301 0.107832 -0.121668 
260 1 0.381079 0.662192 0.0476061 2.43063 -3.24009 -0.558351 0.105013 0.8556 
297 1 0.385481 0.707955 0.999778 0.482243 -3.31332 -0.060873 0.655774 0.0909877 
654 1 0.31497 0.670029 0.10507 1.85955 -3.28166 0.623299 0.935888 -0.598464 
293 1 0.320144 0.671985 0.997081 0.906416 -3.29322 0.108043 0.457023 0.386392 
264 1 0.43687 0.70321 0.0553354 2.19452 -3.30858 0.194565 -0.0771988 -0.35074 
263 1 0.486082 0.646237 0.0482881 2.36383 -3.29707 0.831078 0.54743 -0.0333952 
658 1 0.384295 0.706936 0.108157 1.88853 -3.28062 -0.446579 0.0418673 -0.715776 
661 1 0.436436 0.654053 0.0995806 1.44451 -3.30581 -0.30637 0.571409 0.282846 
662 1 0.494167 0.695578 0.101542 0.772146 -3.306 0.34695 -0.217789 -0.184677 
267 1 0.601751 0.636394 0.0507175 1.15863 -3.31088 0.415172 0.359577 0.0233925 
268 1 0.552293 0.685356 0.048334 1.29712 -3.32914 0.0471424 0.187463 0.420591 
266 1 0.613113 0.683809 0.00344641 0.653528 -3.31561 -0.0301756 0.229933 -0.189465 
666 1 0.609872 0.684631 0.0967479 1.11763 -3.28872 0.200547 -0.317181 -0.0141408 
665 1 0.546394 0.644079 0.0996921 0.382794 -3.35497 -0.171579 -0.050372 -0.154579 
265 1 0.552683 0.647258 0.998803 0.795202 -3.29869 -0.757506 -0.346034 0.0879849 
272 1 0.668211 0.674422 0.0509864 0.919104 -3.32045 0.202644 0.520812 0.0799639 
270 1 0.72539 0.674386 1.00117 0.639497 -3.34717 -0.106249 -0.0032265 -0.288659 
309 1 0.673231 0.721717 1.00276 0.662798 -3.33823 0.140222 0.0290915 -0.161268 
311 1 0.734795 0.716957 0.0494656 0.470774 -3.36049 -0.40331 -0.140988 0.218878 
670 1 0.729734 0.672012 0.0977899 0.608595 -3.32536 -0.778498 -0.228623 -0.0927555 
709 1 0.673794 0.719643 0.100808 0.554258 -3.33297 0.568964 -0.212346 -0.424393 
276 1 0.782684 0.66695 0.0497392 0.651838 -3.34961 0.494422 -0.0980888 -0.486591 
315 1 0.849656 0.701964 0.0451472 0.532777 -3.29325 -0.42251 -0.816603 0.0219747 
674 1 0.848015 0.657942 0.0983112 1.70702 -3.3402 -0.721214 -0.502763 -0.294 
713 1 0.793295 0.708165 0.0974759 0.322176 -3.25061 -0.155191 -0.702872 -0.289433 
278 1 0.95778 0.640266 0.994992 0.660506 -3.34991 -0.283768 0.329297 -0.126922 
280 1 0.899543 0.649134 0.042495 0.774328 -3.37034 -0.21174 0.0681138 0.145262 
319 1 0.966019 0.684691 0.0488455 0.610592 -3.33355 0.000340755 0.121055 -0.334422 
678 1 0.957208 0.64361 0.0950485 0.637038 -3.27637 -0.0363992 0.0659119 0.525169 