ITEM: TIMESTEP
18250
ITEM: NUMBER OF ATOMS
4000
ITEM: BOX BOUNDS pp pp pp
3.6342512727928176e+00 3.6865748727206608e+01
-3.8610023113381602e+00 4.4361002311337231e+01
-5.0382766719299266e-01 4.1003827667193534e+01
ITEM: ATOMS id type xs ys zs c_csym c_peratom fx fy fz 
7 1 0.0994019 0.0550494 0.0482592 1.05743 -3.24909 -0.967344 0.0465186 0.347657 
3 1 0.0297716 0.0209152 0.0494439 0.336144 -3.29085 0.0878841 0.20739 -0.0396813 
2 1 0.0420573 0.0613025 6.57521e-05 1.38033 -3.27199 -0.269561 0.13584 0.142043 
5 1 0.0873071 0.0110383 0.000479419 0.686462 -3.33863 0.0759184 -0.0351602 -0.112305 
11 1 0.215816 0.0378336 0.0559928 1.5408 -3.30532 -0.163021 0.180812 -0.382895 
372 1 0.145432 0.00877324 0.0515425 0.773223 -3.35973 -0.090814 -0.804959 -0.00113928 
10 1 0.216074 0.076337 0.00134092 1.58131 -3.30154 0.362771 0.712446 0.264196 
12 1 0.163517 0.085275 0.0532313 0.738967 -3.29602 0.349651 0.419318 -0.374228 
9 1 0.149455 0.046996 -0.00102111 0.809209 -3.24251 -0.0702612 0.0774662 -0.0483445 
16 1 0.277617 0.0762498 0.0503227 2.21397 -3.25249 -0.645933 -1.01523 0.384595 
15 1 0.32842 0.0225007 0.0537929 0.396876 -3.34847 -0.237368 0.246745 -0.146404 
14 1 0.334038 0.0637765 0.00196617 0.503545 -3.29698 -0.238554 -0.131985 0.216805 
20 1 0.390713 0.0590727 0.0561521 1.13007 -3.32678 -0.112507 -0.272929 -0.478866 
19 1 0.436725 0.0069313 0.0472273 2.42246 -3.29145 0.806943 0.358713 0.676945 
24 1 0.507344 0.0446798 0.0549528 1.05628 -3.29327 -0.515125 -0.421007 -0.0196285 
28 1 0.611293 0.0301663 0.0552185 2.2027 -3.25349 0.613256 0.546113 -0.640938 
63 1 0.565246 0.0805101 0.0488496 0.85748 -3.31341 0.457251 0.588827 0.0631739 
461 1 0.514187 0.0865076 0.105635 1.37922 -3.26255 -0.501615 0.188088 -0.666984 
32 1 0.729016 0.0160776 0.0442509 0.949621 -3.23795 -0.21656 0.161272 0.620338 
67 1 0.679537 0.0635579 0.0513945 1.20724 -3.31651 -0.22647 0.158834 -0.0239255 
426 1 0.672115 0.0226432 0.0996286 0.848414 -3.2921 0.494995 0.524737 0.015327 
36 1 0.788493 0.053062 0.0473718 0.865558 -3.31494 0.484617 0.3288 0.198978 
434 1 0.851532 0.0475516 0.0994421 0.428277 -3.30388 0.0178644 -0.0937537 -0.0143178 
75 1 0.860808 0.0869908 0.0482048 0.419014 -3.33233 -0.502657 0.0443793 0.123988 
34 1 0.849809 0.0456194 -0.00011663 0.348596 -3.31604 0.173691 0.129401 -0.098673 
35 1 0.846577 0.0063994 0.0484503 0.608484 -3.27368 -0.214912 -0.171778 0.160845 
4 1 0.983899 0.068561 0.0493381 1.88379 -3.19908 -1.1344 0.0258076 -0.371139 
40 1 0.91032 0.0386379 0.0496443 0.312412 -3.3049 0.122746 0.146797 -0.094947 
438 1 0.917477 0.0789552 0.0963445 0.487147 -3.32472 0.35211 0.312969 0.373997 
8 1 0.0389795 0.10519 0.0475118 1.60753 -3.25219 1.14989 0.246986 0.0224676 
47 1 0.109161 0.135521 0.0533957 1.43649 -3.37046 0.184864 0.0507739 -0.459394 
6 1 0.102758 0.0966257 -0.00138328 0.61762 -3.29044 -0.0951871 0.311634 0.631473 
446 1 0.118901 0.178568 0.096797 1.26343 -3.22974 -0.159432 -0.241693 0.395668 
52 1 0.17963 0.174731 0.0462467 1.94747 -3.24331 -1.17433 -0.675302 0.313764 
51 1 0.226734 0.122257 0.0527161 0.637778 -3.32438 -0.134864 0.0117632 -0.646547 
449 1 0.169837 0.128367 0.099041 0.343025 -3.26112 0.187391 0.232693 0.0919373 
49 1 0.167336 0.132121 0.000157899 0.352497 -3.35663 -0.0856116 0.016747 0.356103 
55 1 0.339211 0.107861 0.0513851 0.3846 -3.2552 0.441142 0.163698 0.324677 
56 1 0.29326 0.159763 0.0509667 0.930907 -3.23566 -0.778254 -0.483558 0.0246798 
59 1 0.456353 0.0914789 0.0530977 0.687303 -3.30491 -0.246243 0.304879 0.375219 
60 1 0.404784 0.141729 0.0524902 0.371624 -3.3422 -0.0712387 0.154016 -0.071898 
458 1 0.456614 0.135831 0.103016 0.944398 -3.31527 0.322631 -0.0794463 -0.426539 
58 1 0.457288 0.135266 -0.00119488 0.908443 -3.25203 0.180581 0.714178 0.220727 
57 1 0.394975 0.100048 -0.000965977 0.819516 -3.25546 0.430989 0.0899655 0.768722 
97 1 0.41149 0.186022 -4.9427e-05 0.513154 -3.36938 -0.223998 0.00214263 0.0804792 
64 1 0.51624 0.132918 0.0469991 0.882173 -3.26027 -0.0787034 -0.556934 0.270796 
103 1 0.57721 0.169525 0.0476965 0.453779 -3.27955 0.258099 -0.214116 0.165066 
462 1 0.571501 0.125308 0.0955074 1.33142 -3.31693 0.183437 0.0311263 0.255285 
501 1 0.523473 0.175832 0.0995334 0.61518 -3.29284 0.1103 -0.192915 0.101539 
68 1 0.632742 0.116972 0.0492017 0.417172 -3.38238 0.12966 0.13955 -0.219693 
72 1 0.698842 0.155876 0.0441102 2.19917 -3.31574 -0.549479 -0.339651 0.596023 
71 1 0.735874 0.103041 0.0492364 2.35289 -3.28786 0.675953 0.215482 0.0955487 
505 1 0.636516 0.159466 0.100846 0.520327 -3.38164 0.379875 0.377361 -0.387725 
66 1 0.639889 0.16203 -0.00359113 0.492928 -3.28584 -0.0975269 -0.0491174 0.435567 
473 1 0.800461 0.0965091 0.0999985 0.526109 -3.31717 0.0265549 -0.0804182 -0.341704 
76 1 0.810074 0.136541 0.0541326 1.13297 -3.34418 -0.0700355 0.244881 -0.586906 
470 1 0.753403 0.146904 0.101706 0.66265 -3.29866 -0.368341 -0.0255394 -0.255653 
477 1 0.872393 0.1275 0.0995683 0.780871 -3.24552 -0.193424 0.297201 -0.166743 
80 1 0.879404 0.171416 0.0503727 0.348049 -3.38848 -0.283806 0.201794 -0.079972 
74 1 0.866938 0.128887 0.000208685 0.217569 -3.33712 0.062192 0.328496 0.0751342 
70 1 0.754913 0.144173 -0.00286367 1.04109 -3.2806 -0.326005 0.336837 0.302896 
113 1 0.819012 0.178278 -0.00372022 0.864654 -3.29114 -0.0949798 0.0363332 0.671216 
73 1 0.795717 0.0955748 0.00401219 1.78408 -3.30306 0.54217 0.0209683 -0.194699 
43 1 0.993944 0.152653 0.0499616 0.549346 -3.31145 -0.254883 0.375743 0.209812 
79 1 0.92451 0.123101 0.0482762 1.06616 -3.30735 0.341018 -0.164592 0.119472 
402 1 0.987194 0.11008 0.0973938 1.11464 -3.31025 -0.375879 0.368926 0.342146 
48 1 0.0622354 0.185392 0.0534849 1.76594 -3.26831 -0.473253 0.236306 -0.252175 
83 1 0.013746 0.237314 0.050416 0.87962 -3.31624 -0.276724 0.0629759 0.0333519 
87 1 0.12141 0.22289 0.0485039 0.620801 -3.36581 0.0967511 0.206779 0.11753 
42 1 0.00603072 0.197709 0.0019956 0.902234 -3.28294 -0.340369 -0.0907089 -0.0225022 
88 1 0.0722702 0.27544 0.0515005 0.820569 -3.25166 0.652671 -0.415886 0.303119 
46 1 0.111406 0.18516 -0.00294154 2.35826 -3.25461 0.611908 -0.440935 0.662011 
85 1 0.0651157 0.233713 -0.00367284 1.50737 -3.24995 0.204573 0.2577 0.671038 
91 1 0.239681 0.208398 0.054455 0.872148 -3.26225 0.312779 0.59257 -0.503129 
92 1 0.188873 0.257234 0.0508066 0.535931 -3.33066 0.179942 0.0276717 0.278439 
89 1 0.182636 0.214033 0.00124558 0.855456 -3.30296 0.212868 0.609451 -0.0779853 
90 1 0.248339 0.252358 0.00153134 0.253194 -3.34496 -0.310845 -0.10764 0.0415725 
86 1 0.134597 0.266884 0.00231676 0.551651 -3.30888 -0.468359 -0.209985 -0.0616985 
95 1 0.352399 0.194203 0.0494072 0.446902 -3.28757 0.768295 0.144163 0.326383 
96 1 0.305323 0.243219 0.0503093 0.919881 -3.27973 -0.495547 0.291822 0.389377 
94 1 0.360444 0.238365 0.00331071 0.315273 -3.27756 -0.0923032 -0.148555 -0.390615 
93 1 0.295465 0.203258 0.00172135 0.252706 -3.33407 -0.0687649 -0.111491 -0.25442 
99 1 0.470969 0.178739 0.0514706 0.917792 -3.27248 -0.795286 0.247836 -0.234194 
100 1 0.417269 0.230766 0.0519876 0.169392 -3.34112 -0.0297975 -0.13984 0.049372 
139 1 0.48022 0.267182 0.0517944 0.469856 -3.36259 -0.0626169 0.186043 -0.166252 
497 1 0.410594 0.187768 0.101328 0.384182 -3.36049 -0.513697 0.0157455 -0.538956 
498 1 0.473814 0.225746 0.103767 0.794841 -3.31748 0.276505 -0.209537 -0.472777 
98 1 0.472938 0.223218 0.000737133 0.308927 -3.31179 -0.0371258 0.236476 -0.147325 
104 1 0.528146 0.218266 0.0466223 1.11776 -3.27708 0.281954 0.207914 0.629433 
108 1 0.596131 0.251602 0.0531298 1.04471 -3.33462 -0.690544 0.184064 -0.289895 
102 1 0.541412 0.262305 -0.00162807 1.24082 -3.27364 -0.714695 -0.441365 0.654081 
105 1 0.584165 0.21215 -0.00138399 0.665377 -3.31446 0.611749 -0.0969652 0.152308 
107 1 0.640148 0.202797 0.0499706 0.888551 -3.30805 0.349268 -0.117393 0.130331 
509 1 0.701538 0.199492 0.100927 0.625017 -3.26582 -0.885745 -0.967495 -0.0645476 
112 1 0.703852 0.238571 0.0548082 1.3747 -3.21972 0.809553 -0.365352 -0.613965 
115 1 0.825859 0.22161 0.0470093 0.596221 -3.27729 -0.444624 -0.328958 0.332131 
111 1 0.759907 0.190857 0.0496488 0.757316 -3.32065 0.101626 -0.288192 -0.0935066 
513 1 0.763923 0.228979 0.102611 0.834403 -3.25539 0.923241 0.697876 -0.34407 
116 1 0.771906 0.275521 0.047446 1.71639 -3.31043 0.356382 -0.817433 0.932831 
44 1 0.947601 0.204939 0.0499718 0.839128 -3.31894 -0.690232 -0.110829 0.130564 
119 1 0.888374 0.252753 0.0531962 0.799984 -3.29637 0.831828 0.336745 -0.308632 
481 1 0.949534 0.247154 0.103047 0.361283 -3.32712 0.101966 0.0255589 -0.141346 
81 1 0.947852 0.244019 0.000635179 1.03543 -3.37481 0.425604 0.748863 -0.0239252 
117 1 0.882014 0.212667 -0.00233305 0.429762 -3.29326 0.454653 -0.0898708 0.303373 
123 1 0.0248527 0.322589 0.0539983 0.279234 -3.32325 -0.0835468 0.198857 0.03014 
482 1 0.017659 0.277707 0.102869 1.08191 -3.30139 -0.343739 0.337193 -0.0388192 
82 1 0.0213854 0.282229 0.00438911 1.20587 -3.26273 -1.12974 -0.235619 -0.566276 
128 1 0.091837 0.357469 0.0525178 0.62794 -3.33758 0.357729 0.119815 -0.17363 
122 1 0.035008 0.367711 0.00504884 0.672118 -3.27405 -0.552011 -0.40859 -0.098948 
127 1 0.139294 0.309791 0.0589268 1.99138 -3.26291 0.301298 -0.174641 -0.801554 
132 1 0.204123 0.346747 0.0557095 0.439448 -3.35504 -0.295032 -0.25297 -0.379661 
129 1 0.196313 0.300711 0.00533097 0.787513 -3.30833 0.0895794 0.603507 -0.131948 
126 1 0.149252 0.356675 -0.00207741 2.22145 -3.33135 -0.49594 -0.36007 0.466717 
131 1 0.254033 0.295296 0.0535984 0.207678 -3.32979 -0.222971 -0.0179026 0.15517 
136 1 0.321799 0.330929 0.0561666 1.45765 -3.3009 -0.494131 0.0923258 -0.787091 
135 1 0.366626 0.280993 0.0541618 0.404206 -3.3051 0.00288602 -0.0780903 -0.0843241 
130 1 0.262901 0.336772 0.00420152 0.820312 -3.31813 -0.0411914 0.249669 0.132486 
133 1 0.311047 0.289322 0.0056701 0.689288 -3.30306 0.2559 -0.0901935 -0.406742 
140 1 0.423879 0.321339 0.050193 1.37531 -3.32908 0.460064 -0.179286 -0.00227304 
538 1 0.483769 0.314796 0.0983413 1.25914 -3.27854 -0.160489 -0.621203 -0.0575499 
577 1 0.434444 0.361652 0.0993183 0.470553 -3.28127 0.0293949 0.312409 -0.209475 
144 1 0.492927 0.355121 0.051647 0.363767 -3.30654 -0.125409 -0.15683 -0.479448 
137 1 0.420299 0.275377 0.000797452 0.383448 -3.28593 0.202014 0.096675 0.301005 
141 1 0.487427 0.308873 0.00182445 0.747456 -3.34618 -0.21409 0.385382 0.0428477 
143 1 0.545088 0.303572 0.0530916 0.350349 -3.30762 -0.269101 -0.113251 -0.489406 
148 1 0.61305 0.336245 0.0510659 0.408127 -3.32561 -0.142991 0.00209339 -0.30094 
147 1 0.660628 0.284482 0.0524507 0.910647 -3.20248 -0.330566 1.0213 -0.215394 
151 1 0.723308 0.321933 0.0509343 0.654043 -3.30459 0.367045 -0.0744415 0.11783 
150 1 0.734674 0.365123 0.00611232 1.24642 -3.25815 0.464335 -0.452744 -0.603609 
120 1 0.842029 0.30412 0.0523771 0.428709 -3.26927 -0.267053 -0.160127 0.202467 
155 1 0.793955 0.354115 0.0537549 0.550957 -3.33613 0.215286 -0.168973 -0.533108 
514 1 0.784069 0.312616 0.103798 0.701399 -3.33005 0.110175 0.130333 -0.595921 
84 1 0.959015 0.287339 0.0517178 0.367934 -3.39515 -0.160965 -0.0864344 -0.0294162 
159 1 0.904681 0.338578 0.0492194 1.10069 -3.25706 0.626996 0.187562 0.36534 
518 1 0.899029 0.295396 0.103632 0.555763 -3.28202 0.0477165 -0.0487157 -0.393476 
121 1 0.967507 0.332307 0.00358848 0.316276 -3.33569 -0.0619811 -0.211018 -0.0331778 
163 1 0.0435402 0.408893 0.0517654 0.422721 -3.31833 -0.127725 0.289526 0.212186 
168 1 0.105337 0.446112 0.051132 0.287576 -3.32299 -0.148856 0.123576 0.270265 
562 1 0.053294 0.454753 0.103811 0.936046 -3.2753 -0.236629 -0.701224 -0.436492 
165 1 0.0938098 0.404338 0.000592445 0.728242 -3.27424 0.698349 0.274838 0.09506 
167 1 0.153717 0.39845 0.0513127 0.624616 -3.34218 0.165827 -0.472849 -0.144588 
172 1 0.219906 0.434154 0.0584426 1.77953 -3.30771 0.265268 -0.0367365 -0.682325 
166 1 0.163735 0.440315 0.00547111 1.06161 -3.32076 -0.0804502 -0.403235 -0.423421 
169 1 0.215404 0.389732 0.00274714 1.06879 -3.26107 -0.576691 -0.0721416 0.177329 
171 1 0.26451 0.382519 0.0538975 0.825474 -3.27854 0.477771 0.0741301 0.0926841 
176 1 0.324828 0.422111 0.0528289 1.45047 -3.33004 0.264052 -0.239074 0.205845 
170 1 0.270516 0.428902 0.00225027 0.942337 -3.3072 0.164392 0.125685 0.183492 
175 1 0.376888 0.373028 0.0505972 1.33246 -3.2881 0.424611 -0.0993271 0.112525 
179 1 0.446295 0.405543 0.0457467 1.19391 -3.30488 -0.27166 -0.148976 0.640269 
180 1 0.394495 0.454369 0.0520264 0.680997 -3.23506 -0.254924 -0.486437 0.0880097 
177 1 0.389043 0.411389 -5.96429e-05 0.34727 -3.32036 -0.0609667 0.184704 -0.202777 
183 1 0.560796 0.384021 0.0508204 0.847897 -3.35161 0.207944 0.59882 -0.088424 
184 1 0.51056 0.437544 0.0484388 0.339894 -3.25452 -0.278519 -0.26332 0.183333 
581 1 0.497028 0.397625 0.101616 0.883494 -3.3405 0.327436 0.0082809 -0.294905 
185 1 0.61925 0.379955 -0.00146956 0.674439 -3.31375 -0.25343 0.0952505 0.215246 
187 1 0.62378 0.422468 0.0491236 1.1424 -3.32832 0.406051 -0.551624 0.366945 
152 1 0.674106 0.372179 0.0464826 1.64709 -3.25922 -0.0343985 0.0595199 0.852328 
550 1 0.68583 0.409144 0.101399 0.72225 -3.35378 -0.216086 0.0926265 -0.307175 
156 1 0.744398 0.405901 0.0500726 0.500071 -3.29025 -0.174459 -0.100163 0.265041 
189 1 0.685744 0.413344 0.00447424 1.0897 -3.25999 -0.120521 0.196653 -0.466354 
191 1 0.693341 0.455067 0.0519332 0.394479 -3.31039 -0.423858 -0.137738 0.17461 
160 1 0.857989 0.390936 0.0527036 0.642248 -3.35521 0.0886672 -0.284608 -0.233072 
195 1 0.808207 0.439195 0.0491258 0.292716 -3.35544 0.256008 0.284956 0.276956 
197 1 0.867977 0.4323 0.00381623 0.373859 -3.30297 -0.378539 -0.513988 -0.390556 
154 1 0.800698 0.396838 -0.000519939 0.665618 -3.32276 0.260501 0.0261114 0.37762 
193 1 0.746564 0.450492 0.00199666 1.28022 -3.25604 0.653206 -0.529409 -0.313179 
124 1 0.978043 0.373777 0.0533736 0.427242 -3.30681 -0.251624 0.0190474 -0.128285 
199 1 0.927281 0.425777 0.0519114 0.338884 -3.25719 -0.224992 -0.635907 -0.127747 
561 1 0.985443 0.41826 0.098879 0.44999 -3.31044 0.0623521 -0.453775 0.335566 
161 1 0.985091 0.420524 0.00213775 0.980991 -3.30934 -0.422851 -0.656412 0.150771 
203 1 0.0563523 0.496904 0.0511613 0.382832 -3.31169 -0.296725 -0.446628 0.127405 
602 1 0.0628651 0.538259 0.100595 0.332068 -3.2961 0.196613 0.59051 -0.248139 
208 1 0.118683 0.532402 0.0507344 0.397029 -3.28472 0.224692 0.0903055 0.21577 
204 1 0.00243121 0.545185 0.0518364 0.746559 -3.2801 0.320997 -0.343349 -0.391348 
162 1 0.0492513 0.453328 0.00286621 0.560929 -3.31028 -0.254447 0.228169 -0.0132948 
207 1 0.169374 0.482139 0.0527404 0.241464 -3.33647 0.319918 0.204075 0.173426 
212 1 0.233477 0.520978 0.0540504 0.586074 -3.31131 -0.288879 -0.0702078 -0.283566 
209 1 0.221487 0.478976 -0.00283296 2.20208 -3.28611 0.619236 0.239462 0.627322 
211 1 0.280333 0.474378 0.052309 1.37058 -3.31215 -0.351382 -0.401385 -0.146105 
215 1 0.345942 0.506272 0.0514107 0.215918 -3.2103 -0.0835726 -0.215692 0.00340754 
613 1 0.336607 0.466923 0.102223 1.27988 -3.29298 -0.00583962 -0.472511 -0.186056 
219 1 0.453657 0.487651 0.0474517 1.28464 -3.24227 0.980316 0.474717 0.125278 
621 1 0.464441 0.532097 0.104457 1.74976 -3.32259 0.444633 0.133854 -0.165524 
220 1 0.408301 0.538808 0.0500459 0.604009 -3.27019 0.830544 0.394795 -0.0578679 
617 1 0.403193 0.498667 0.0972419 1.13786 -3.25447 -0.177003 -0.142347 0.808917 
188 1 0.576404 0.466035 0.045992 2.18874 -3.2164 0.555596 1.45679 0.671474 
582 1 0.518263 0.475897 0.0972949 1.73695 -3.27222 0.0129755 0.768273 -0.379677 
223 1 0.519161 0.522379 0.0508538 2.09933 -3.35043 0.628628 0.0133388 0.121634 
586 1 0.58389 0.512701 0.095017 1.22749 -3.38037 0.169092 -0.187802 0.0150603 
192 1 0.645733 0.50684 0.0474469 0.715063 -3.33096 -0.418179 -0.338669 0.474085 
231 1 0.713843 0.540811 0.0531811 1.12931 -3.35622 -0.229294 0.0391221 -0.0995931 
589 1 0.633952 0.459547 0.102579 1.33707 -3.3243 0.0973091 0.576242 -0.472905 
590 1 0.700077 0.49543 0.0995235 0.315818 -3.34736 -0.154999 0.0306222 0.0368056 
186 1 0.638205 0.462129 -0.00360853 1.34767 -3.27641 -0.0945928 0.751906 0.657204 
196 1 0.759414 0.488309 0.0507666 0.336604 -3.27291 0.0260531 0.0893717 0.330622 
194 1 0.817352 0.483861 0.00264861 0.576853 -3.33174 -0.167188 -0.394614 -0.012261 
235 1 0.817961 0.526136 0.0553179 1.87091 -3.31022 0.684746 0.341813 -0.721453 
200 1 0.877717 0.475325 0.0498767 0.813473 -3.27444 -0.94476 -0.260866 0.356946 
233 1 0.764744 0.533235 0.00246435 0.527788 -3.33961 0.189397 0.129091 -0.340477 
164 1 0.990604 0.459919 0.0547448 0.728802 -3.31691 0.53977 0.146234 -0.531862 
239 1 0.938999 0.506682 0.0488161 0.579068 -3.31491 0.584304 0.490512 0.280605 
601 1 1.00444 0.499369 0.101793 1.39767 -3.29547 -0.852767 0.356678 -0.219783 
237 1 0.877493 0.519341 0.00264167 1.37609 -3.27715 0.295867 -0.197763 -0.012467 
201 1 0.996129 0.499111 6.71654e-05 0.712516 -3.33831 -0.13904 0.212901 0.207706 
198 1 0.93148 0.463373 0.00206237 1.09414 -3.2444 0.379582 0.687826 -0.306117 
243 1 0.0711461 0.581177 0.0513309 0.841767 -3.35122 -0.416641 0.108588 0.0622295 
641 1 0.00552468 0.589946 0.0953447 2.18999 -3.26737 0.776119 -0.0781403 0.834425 
244 1 0.0139581 0.631997 0.050832 0.503957 -3.23028 0.270624 0.0877521 -0.39434 
242 1 0.0723922 0.625281 -0.00221656 0.339925 -3.31467 0.303601 -0.126083 0.399164 
248 1 0.127855 0.621333 0.0485536 0.90918 -3.32302 0.0670805 -0.054898 0.0341256 
247 1 0.181844 0.574105 0.0492083 1.89539 -3.18561 -0.50225 -1.13435 0.462684 
251 1 0.23961 0.607482 0.0494113 1.54452 -3.20751 1.12374 -0.0920709 0.205793 
249 1 0.18776 0.607878 -0.00173439 1.59908 -3.23643 -0.270626 0.83266 -0.202146 
210 1 0.241172 0.564087 0.000469601 0.607124 -3.32376 -0.255713 -0.67206 -0.0297064 
216 1 0.296437 0.555873 0.0544412 0.53738 -3.25337 -0.463587 0.0881774 -0.597142 
255 1 0.356813 0.590619 0.0503441 0.947919 -3.28484 0.578466 0.0433916 -0.26498 
653 1 0.301943 0.595716 0.101848 0.412401 -3.30635 -0.204075 0.409478 -0.334161 
657 1 0.369005 0.630849 0.0996573 0.491715 -3.32674 -0.284449 -0.207206 0.00137346 
259 1 0.426696 0.623062 0.0482338 0.506019 -3.2755 0.21107 -0.13949 0.24269 
224 1 0.478948 0.572846 0.0477588 0.58089 -3.36339 0.0770999 -0.0596284 0.137562 
261 1 0.488285 0.612312 -0.00542909 2.13816 -3.25429 0.410233 0.433417 1.11026 
257 1 0.423179 0.583094 -4.72416e-05 0.490131 -3.27112 -0.353663 -0.423868 -0.0299152 
227 1 0.593579 0.557511 0.0492288 0.499139 -3.2969 -0.557889 -0.524768 0.0259779 
228 1 0.54517 0.607773 0.0519832 0.843689 -3.28442 -0.488391 -0.61093 -0.395233 
625 1 0.534791 0.562655 0.103339 1.21124 -3.33159 -0.183318 0.0697474 -0.629596 
226 1 0.598125 0.597318 0.00209462 1.16873 -3.21982 1.03982 0.555831 -0.180895 
629 1 0.648632 0.550263 0.0976944 1.03239 -3.29648 0.449909 -0.770118 0.139002 
232 1 0.658252 0.588899 0.0497117 0.607665 -3.31856 0.531451 0.377996 -0.287052 
271 1 0.725068 0.626188 0.0493094 0.663305 -3.32594 -0.32809 -0.237518 0.0683156 
630 1 0.715882 0.585174 0.100333 1.18419 -3.2671 0.402168 -0.463669 -0.188792 
230 1 0.718645 0.582967 -0.000673532 0.587613 -3.36343 0.00351697 -0.0604523 0.220492 
229 1 0.655711 0.545651 -0.0021118 1.482 -3.33658 -0.0769947 0.308921 0.0606737 
269 1 0.666014 0.631055 -0.000588735 0.523932 -3.32434 0.240866 0.126306 0.543483 
236 1 0.775227 0.58057 0.0563623 2.45274 -3.29692 0.028726 -0.725642 -0.667319 
275 1 0.843805 0.610357 0.0489861 0.466681 -3.29949 0.0685134 -0.168941 0.0726793 
634 1 0.833464 0.568565 0.103271 0.541611 -3.27797 -0.0852843 -0.365718 -0.528654 
673 1 0.785331 0.617417 0.103666 0.769817 -3.26499 -0.325428 0.174593 -0.313211 
240 1 0.893732 0.557431 0.0504726 0.884889 -3.31217 -0.714321 0.30768 -0.0545208 
279 1 0.957725 0.594497 0.0466914 0.633814 -3.21226 -1.00617 0.125495 -0.320436 
277 1 0.902821 0.601789 -0.00370068 0.972241 -3.31323 -0.369098 0.125068 0.487822 
283 1 0.0732567 0.667366 0.0524279 0.786914 -3.2752 0.57428 0.346813 -0.355779 
284 1 0.0260507 0.717896 0.0503363 0.471206 -3.27219 0.126514 0.428379 -0.101627 
681 1 0.0172706 0.677713 0.0993817 0.903937 -3.24466 -0.0546071 -0.20163 0.261528 
285 1 0.0821433 0.713094 0.00398004 1.50412 -3.26789 0.415851 -0.138758 -0.484691 
685 1 0.130946 0.661866 0.10299 0.810375 -3.30426 0.598087 0.201601 -0.523444 
252 1 0.193484 0.653937 0.0512899 0.617232 -3.29394 -0.386425 0.274896 -0.547669 
287 1 0.137649 0.70499 0.0522235 0.932508 -3.32989 0.451685 -0.400456 0.214711 
689 1 0.205222 0.690983 0.100047 2.14925 -3.29384 -0.376022 1.10033 -0.116974 
246 1 0.132371 0.66545 0.000461771 1.51364 -3.3765 0.128261 -0.503678 -0.00676415 
289 1 0.20444 0.695287 0.0019144 0.322954 -3.32309 -0.16196 -0.0611706 0.209998 
250 1 0.252406 0.643918 -0.00259688 0.670574 -3.29018 -0.406777 0.355666 0.260416 
256 1 0.309571 0.636255 0.0476397 0.323619 -3.32849 0.143174 0.269999 0.424451 
650 1 0.250969 0.645462 0.100282 0.534629 -3.26294 0.789716 0.0605238 -0.0995831 
291 1 0.263343 0.683821 0.0483452 0.656124 -3.33025 -0.0824162 0.501801 0.133403 
654 1 0.321904 0.67815 0.0973935 0.724523 -3.34592 -0.270502 0.327992 -0.0027345 
295 1 0.331846 0.718904 0.0490879 1.3821 -3.34385 -0.381124 0.451544 0.155499 
693 1 0.271102 0.732456 0.0997992 0.68011 -3.3323 0.026033 -0.598759 0.0559573 
260 1 0.37842 0.670532 0.0476937 0.671625 -3.2735 -0.300455 0.125416 0.472287 
264 1 0.438765 0.709101 0.0541701 1.30638 -3.31724 0.266712 -0.117326 -0.455357 
263 1 0.491018 0.655407 0.0547922 0.851641 -3.33816 0.026972 0.27026 -0.298692 
661 1 0.430758 0.665203 0.105311 1.20319 -3.30658 0.330724 -0.0529642 -0.717126 
258 1 0.43456 0.666343 0.0039834 0.943307 -3.28097 0.564196 -0.126091 -0.454321 
262 1 0.500796 0.698597 0.00377755 0.445716 -3.29491 0.220264 -0.541084 -0.482613 
267 1 0.611567 0.639919 0.0551195 1.13188 -3.27237 0.306724 -0.123217 -0.669127 
268 1 0.557897 0.686653 0.0509954 1.05835 -3.24529 -0.106334 0.00125004 0.204859 
266 1 0.61737 0.683007 -0.00283474 1.07379 -3.33997 0.381014 -0.0300843 0.29288 
265 1 0.556694 0.648012 0.0027283 0.996348 -3.34502 -0.574534 -0.19213 -0.224812 
272 1 0.673679 0.675352 0.0542218 0.748982 -3.31176 0.153919 -0.11177 -0.503395 
270 1 0.731152 0.664784 0.000808886 0.682885 -3.35951 0.272994 0.273688 0.0362214 
311 1 0.737346 0.710762 0.0534778 0.679878 -3.26458 0.607513 -0.707111 0.0709155 
670 1 0.732757 0.66645 0.102597 0.281634 -3.35309 0.352696 0.166656 -0.130086 
709 1 0.682201 0.717783 0.102214 0.500508 -3.23918 -0.244928 -0.48949 -0.186119 
309 1 0.685782 0.716104 0.00567416 1.011 -3.30108 -0.603368 -0.340394 -0.617366 
276 1 0.790302 0.657702 0.0515432 0.52938 -3.32404 -0.000146517 0.436759 0.0115486 
315 1 0.855259 0.694393 0.0481822 0.407358 -3.32935 0.360284 0.0283083 0.267747 
313 1 0.797194 0.702804 0.00472548 0.77118 -3.28947 -0.440623 -0.158661 -0.11939 
274 1 0.84448 0.653497 -0.00135354 0.890934 -3.24366 0.726243 -0.000675815 -0.181634 
280 1 0.905935 0.646242 0.0441329 0.819837 -3.30639 -0.115063 -0.187122 0.339849 
319 1 0.964883 0.684693 0.0477438 0.603424 -3.25458 -0.0722418 -0.353878 -0.306708 
288 1 0.0929261 0.756968 0.0486898 1.22553 -3.31284 -0.201047 -0.208817 0.142843 
323 1 0.0408028 0.802403 0.0543377 0.907157 -3.27469 0.295611 0.0838094 -0.668595 
721 1 0.03579 0.760516 0.102002 0.623182 -3.31594 0.294018 -0.070668 -0.143037 
325 1 0.104624 0.798989 0.00128024 1.1916 -3.28198 0.279821 -0.710061 0.330793 
292 1 0.20985 0.735162 0.0541678 1.09151 -3.34417 0.173965 -0.0606246 -0.176006 
327 1 0.163282 0.787031 0.0497172 0.828695 -3.32331 -0.154331 0.193759 -0.113268 
690 1 0.216965 0.779523 0.0989419 0.788927 -3.30096 -0.088297 -0.0395807 0.24413 
329 1 0.222396 0.773473 -0.000124804 1.92417 -3.32832 -0.111201 0.613018 0.318272 
286 1 0.152563 0.743294 0.00430297 0.762163 -3.29779 0.036575 0.335091 -0.313923 
296 1 0.279485 0.771031 0.052582 0.508604 -3.3309 -0.083461 -0.0910511 -0.457483 
300 1 0.339717 0.807642 0.0494322 0.976753 -3.31468 0.210155 0.194744 0.238257 
290 1 0.271686 0.72851 0.000487395 0.590044 -3.31637 0.0377415 0.0295864 0.518785 
333 1 0.284159 0.813695 -0.0009377 0.586287 -3.35545 0.124104 -0.0230477 0.283217 
299 1 0.390318 0.762512 0.053365 2.53178 -3.34928 -0.0568364 -0.578133 -0.196343 
304 1 0.461346 0.78815 0.0478658 0.976238 -3.26071 -0.431335 -0.136516 0.687024 
701 1 0.451394 0.747912 0.10328 0.703824 -3.247 0.0617764 0.0188129 -0.650945 
301 1 0.454174 0.747347 0.00335366 0.906513 -3.30932 -0.543653 0.00887943 -0.27989 
303 1 0.512987 0.736097 0.048225 2.38886 -3.278 -0.0971951 0.59257 0.778132 
308 1 0.574798 0.775982 0.0498037 0.84252 -3.3113 0.0125881 -0.616002 0.210822 
702 1 0.514084 0.780826 0.102749 1.04782 -3.31742 0.570861 0.136092 -0.50836 
307 1 0.617045 0.721007 0.047722 3.32112 -3.2732 0.97661 0.717952 0.299491 
312 1 0.688627 0.756119 0.0538301 0.803989 -3.31212 -0.231607 0.344813 -0.308027 
306 1 0.635101 0.766512 -0.000369044 0.671373 -3.32475 -0.211146 -0.485352 0.0115748 
347 1 0.643421 0.80638 0.0463633 1.41388 -3.22321 -0.36474 -0.147427 0.911384 
706 1 0.632579 0.765696 0.0999559 0.385587 -3.25043 -0.138957 0.343282 -0.472274 
310 1 0.748761 0.751062 0.00656315 0.910441 -3.22469 0.150276 -0.0506783 -0.291623 
349 1 0.701412 0.799643 0.00379548 1.06981 -3.21062 -0.129079 0.0924534 -0.476394 
351 1 0.753108 0.792888 0.0514095 0.355202 -3.31296 0.474288 0.383245 0.167493 
316 1 0.805696 0.74406 0.0522438 0.407895 -3.30344 0.0505455 0.169202 -0.0475597 
314 1 0.859894 0.738358 0.00120176 0.323611 -3.31633 -0.0282805 -0.0484801 -0.0412374 
355 1 0.865902 0.782693 0.0520237 0.33122 -3.34522 0.0705678 -0.10031 -0.135196 
714 1 0.86082 0.738458 0.100893 0.219053 -3.31698 0.134874 0.152776 0.00638045 
353 1 0.808913 0.788907 -0.00105141 0.5824 -3.3181 0.0295228 0.0901474 0.391679 
320 1 0.918005 0.732225 0.052034 0.563019 -3.28789 -0.577361 -0.0516983 -0.431802 
359 1 0.978319 0.766375 0.0483073 0.640735 -3.30039 0.269409 0.273042 0.221626 
360 1 0.933613 0.816454 0.0501829 0.870126 -3.2802 -0.653228 -0.0337563 0.058633 
321 1 0.98626 0.810732 0.00175438 0.429006 -3.3093 0.434033 -0.023024 -0.0516641 
328 1 0.108479 0.835431 0.052892 0.767673 -3.33239 0.553464 0.549564 -0.09993 
363 1 0.0577872 0.888896 0.0533317 0.282231 -3.35442 -0.0661608 -0.209803 -0.0791389 
761 1 -0.00361477 0.896523 0.101724 0.516024 -3.31354 0.636131 0.0209358 -0.361926 
726 1 0.118765 0.880375 0.0992455 0.579138 -3.33394 -0.395317 0.0135986 0.357107 
365 1 0.118916 0.88067 0.000208157 0.572945 -3.32329 0.0863363 -0.180978 0.422741 
322 1 0.0547343 0.844329 0.00465134 0.610604 -3.34815 -0.403566 0.385041 -0.217442 
361 1 0.00182679 0.897017 0.00243227 0.099529 -3.32941 -0.183552 -0.158486 -0.0629149 
331 1 0.228471 0.820691 0.0535191 0.469806 -3.35507 -0.100185 0.132805 -0.54434 
332 1 0.176946 0.871707 0.0530084 0.245188 -3.38501 -0.140971 -0.287701 -0.323217 
729 1 0.16482 0.829072 0.107632 2.34754 -3.27675 0.742224 0.356554 -0.886283 
330 1 0.238463 0.863265 0.000945746 0.279331 -3.30008 0.0667849 -0.036278 0.308733 
336 1 0.242531 0.905352 0.0545919 0.439237 -3.27498 -0.271306 0.102823 -0.340566 
335 1 0.294789 0.857472 0.052414 0.503577 -3.31839 -0.302119 -0.348737 -0.105543 
340 1 0.356557 0.894489 0.0505676 1.57739 -3.22802 0.335147 -0.56815 0.139546 
337 1 0.350833 0.850152 0.00291249 0.493235 -3.33237 0.0377423 -0.184148 -0.0425405 
339 1 0.412271 0.836977 0.0501618 1.18244 -3.29189 -0.519445 -0.0805674 0.108559 
344 1 0.472305 0.871188 0.0551234 1.03294 -3.26954 0.724028 0.436912 -0.339088 
341 1 0.466404 0.833807 -0.00141603 0.748602 -3.2908 0.13564 -0.0976417 0.138887 
343 1 0.524139 0.819858 0.0495716 0.99864 -3.26379 0.333138 0.949783 0.49703 
348 1 0.594367 0.857495 0.0506852 0.769955 -3.26884 -0.541655 -0.425401 0.229425 
342 1 0.533899 0.864393 0.00653275 1.72475 -3.29043 -0.262194 0.0337361 -0.396265 
352 1 0.703084 0.841737 0.0522945 0.543161 -3.30249 0.44439 0.61102 -0.115787 
387 1 0.650739 0.893543 0.0513683 0.555034 -3.30852 0.68753 0.357566 -0.204423 
746 1 0.648192 0.850457 0.103241 0.772022 -3.29285 -0.0866025 0.240777 -0.512645 
356 1 0.817307 0.833988 0.0499827 0.566312 -3.32933 -0.654071 -0.378987 -0.0918309 
391 1 0.765509 0.881859 0.0499636 0.288977 -3.29029 0.143992 -0.399205 0.30874 
350 1 0.759066 0.839383 -0.00404461 1.2843 -3.33858 -0.0501351 0.00180182 0.705571 
750 1 0.760522 0.837638 0.102213 0.415099 -3.33864 0.372447 0.270639 -0.214166 
793 1 0.827982 0.87435 0.10208 0.963988 -3.2983 -0.886381 0.323385 -0.0676707 
393 1 0.821081 0.876919 0.00219696 1.1573 -3.33206 0.709285 0.0145818 -0.117318 
324 1 0.991571 0.853057 0.0527233 0.236658 -3.3128 0.355225 0.497474 -0.326354 
395 1 0.88111 0.866691 0.0505714 0.574812 -3.28276 0.0709582 0.604334 -0.259318 
797 1 0.933535 0.860362 0.100428 0.331776 -3.26204 0.491873 0.158323 0.0294087 
399 1 0.944061 0.907272 0.0519626 0.582374 -3.27175 -0.453226 -0.798226 -0.316806 
358 1 0.935897 0.86263 0.00304612 0.727487 -3.33125 0.318069 -0.208618 -0.229932 
368 1 0.0738886 0.974195 0.0521514 0.903302 -3.32983 0.673516 -0.230204 -0.0478765 
364 1 0.00487962 0.940793 0.0513839 0.836962 -3.26639 0.73871 -0.0185248 -0.127725 
362 1 0.0676883 0.928638 0.00423988 0.740106 -3.29238 0.292004 0.182081 -0.146083 
1 1 0.0235166 0.975585 -0.00129627 2.71366 -3.3144 -0.314473 0.526926 0.0595927 
367 1 0.125481 0.92125 0.0534927 0.494046 -3.31587 0.352069 0.219456 -0.375592 
730 1 0.185353 0.91417 0.101548 0.26142 -3.30213 -0.261076 -0.0923725 0.0398094 
371 1 0.1929 0.957885 0.0496686 0.629233 -3.33404 0.00524328 -0.135218 0.405633 
769 1 0.139835 0.963953 0.102194 1.50062 -3.27058 -1.04033 0.16836 -0.827491 
370 1 0.200919 1.00121 -0.000648377 1.03436 -3.28718 -0.080366 -0.435759 0.477485 
366 1 0.138325 0.96137 0.00268256 1.05825 -3.31988 -0.494633 0.29456 0.00251984 
369 1 0.189031 0.912889 0.00176697 0.550554 -3.35342 -0.197116 -0.0517744 0.0879893 
375 1 0.30801 0.940259 0.0554554 0.580287 -3.2824 0.0877053 0.467527 -0.465109 
376 1 0.2595 0.990853 0.0522326 0.381074 -3.35294 0.166835 -0.274269 0.158517 
777 1 0.36684 0.930553 0.102115 0.357792 -3.29139 0.15784 0.258903 -0.0679339 