ITEM: TIMESTEP
16500
ITEM: NUMBER OF ATOMS
4000
ITEM: BOX BOUNDS pp pp pp
3.2785624621186638e+00 3.7221437537880760e+01
-3.6354164868625487e+00 4.4135416486861580e+01
-3.5259687918670973e-01 4.0852596879187239e+01
ITEM: ATOMS id type xs ys zs c_csym c_peratom fx fy fz 
405 1 0.0370529 0.0659611 0.0994788 0.328364 -3.36974 0.0590622 0.057182 0.324126 
7 1 0.0908098 0.0603178 0.0511247 0.833673 -3.32324 0.0106919 -0.100529 -0.305571 
3 1 0.0272155 0.0238415 0.0489601 0.298846 -3.27484 0.282864 0.332594 0.316863 
766 1 0.0860634 0.0146826 0.0993239 0.39206 -3.33043 -0.0708803 0.347665 0.162587 
11 1 0.209174 0.0446546 0.0483036 0.505831 -3.29315 0.0593214 -0.573323 0.188141 
409 1 0.150851 0.0517918 0.0968045 1.12237 -3.26663 0.0037249 -0.524909 0.843995 
410 1 0.219703 0.0849919 0.0983558 0.44869 -3.26543 0.194007 0.261629 0.388091 
372 1 0.139985 0.0100622 0.050308 0.445483 -3.33368 0.460666 -0.132093 -0.113509 
770 1 0.202374 0.00263505 0.0999313 0.462422 -3.39148 0.0172876 -0.286328 -0.0832598 
16 1 0.278084 0.0790045 0.0520209 0.753757 -3.2515 -0.0856536 -0.531228 -0.397903 
15 1 0.327084 0.0305085 0.0543118 1.06835 -3.3183 -0.305085 -0.113425 -0.660415 
413 1 0.266239 0.0364571 0.0976969 0.871413 -3.30807 0.475514 -0.226621 0.063037 
414 1 0.332793 0.071795 0.101482 0.533238 -3.35044 0.370592 0.033298 0.161738 
13 1 0.262461 0.0371793 0.000866275 1.57081 -3.30318 0.85786 -0.582129 0.178866 
20 1 0.390383 0.0649333 0.0536173 1.13765 -3.3186 0.149584 -0.140509 -0.492375 
19 1 0.439695 0.014082 0.0461578 0.633679 -3.34144 0.0680508 0.102366 0.224874 
418 1 0.447065 0.0559762 0.100554 0.594137 -3.29525 -0.0944476 0.200654 -0.323809 
421 1 0.494946 0.00740603 0.0969577 0.811615 -3.29075 0.120741 -0.588639 -0.165266 
417 1 0.385588 0.0195712 0.0988478 1.01736 -3.32264 -0.321335 0.365023 0.395956 
24 1 0.505453 0.0498498 0.0497911 0.513397 -3.36223 0.035623 -0.153358 -0.215489 
21 1 0.496591 0.00554412 0.997094 0.532099 -3.32322 0.195938 0.548831 0.521259 
28 1 0.619204 0.03045 0.0512472 0.760745 -3.2455 0.708907 0.153064 0.106942 
422 1 0.561929 0.0373213 0.100278 0.651159 -3.24034 0.595418 0.240002 -0.458746 
465 1 0.633814 0.0736541 0.100545 0.855542 -3.30254 -0.281739 -0.0821232 0.0893605 
63 1 0.576005 0.0777331 0.0544212 3.39111 -3.30048 -0.561836 0.936592 -0.245711 
61 1 0.509988 0.0932815 0.000340994 0.804919 -3.25716 0.25297 -0.341563 0.0861466 
461 1 0.514114 0.0907409 0.100917 0.648132 -3.35691 0.374566 0.229439 -0.497321 
32 1 0.733584 0.0171613 0.0431456 0.843433 -3.33174 0.0844846 0.271601 0.53417 
67 1 0.685365 0.0659696 0.0477461 0.463962 -3.37534 -0.00842463 0.116639 0.0552744 
469 1 0.744324 0.0582767 0.098306 0.274521 -3.36263 -0.141098 0.390594 -0.0807289 
426 1 0.679851 0.0239374 0.0992271 0.278039 -3.36528 -0.193587 -0.0112006 -0.361929 
30 1 0.742772 0.0617034 -0.000265389 0.545028 -3.30842 -0.414627 -0.266536 -0.0472283 
26 1 0.670304 0.0264103 0.995398 1.5036 -3.29203 1.01471 0.474748 0.381505 
36 1 0.799224 0.0541231 0.0474219 0.188071 -3.31506 0.033088 0.00479234 0.094266 
35 1 0.84887 0.00345041 0.0499986 0.483259 -3.30105 0.196324 -0.233604 -0.493078 
434 1 0.853381 0.0464693 0.09881 0.621274 -3.29488 0.532075 0.443039 -0.0192141 
430 1 0.792738 0.011321 0.0944633 0.746185 -3.29226 -0.596815 -0.400871 0.324221 
33 1 0.792294 0.0122438 0.995517 0.619053 -3.35081 -0.174781 -0.299411 0.165597 
4 1 0.979226 0.074111 0.0515674 0.504179 -3.34464 -0.100804 -0.256101 -0.418363 
40 1 0.908317 0.0385354 0.0476947 1.09349 -3.30416 0.802364 0.119794 0.106759 
401 1 0.968618 0.031345 0.0973203 0.767032 -3.30367 0.461587 0.266513 0.369535 
438 1 0.921696 0.0796392 0.101477 0.70642 -3.3439 -0.185418 0.072228 -0.0301877 
8 1 0.0428393 0.109834 0.0456496 1.02262 -3.34943 0.159974 -0.0588162 0.441353 
47 1 0.112376 0.143356 0.0493461 0.330798 -3.31226 0.0806059 -0.0260957 0.143545 
406 1 0.105654 0.102835 0.0967645 0.915863 -3.31205 -0.586019 -0.179007 0.512675 
445 1 0.0520807 0.150816 0.0967023 0.493802 -3.3789 0.234472 0.171448 0.109777 
45 1 0.0549475 0.153784 0.00460766 0.974543 -3.30023 -0.15768 -0.228919 -0.569175 
12 1 0.16219 0.0905899 0.0536847 1.14225 -3.25736 -0.0252516 0.92851 -0.938492 
52 1 0.181819 0.17851 0.0466296 0.83968 -3.2958 -0.250003 0.0500352 0.931954 
51 1 0.234464 0.124797 0.0527785 2.08253 -3.31945 -0.895418 0.704705 -0.471888 
449 1 0.171222 0.137111 0.0995816 0.547177 -3.34753 0.319648 -0.124782 -0.327013 
450 1 0.241045 0.171845 0.0976259 0.877641 -3.33539 -0.341046 -0.292343 -0.138001 
55 1 0.341505 0.111199 0.0463213 1.14098 -3.25036 -0.0965922 0.340274 0.531999 
56 1 0.296366 0.160889 0.0464154 1.07741 -3.33515 -0.401898 0.462227 0.282682 
453 1 0.28978 0.121366 0.0994113 0.551893 -3.31202 -0.10717 -0.0147685 0.170301 
454 1 0.34946 0.15895 0.0990425 0.448413 -3.31441 0.168228 -0.4465 0.222344 
54 1 0.348165 0.156292 0.998947 0.289678 -3.28584 0.247716 0.0925999 0.0709124 
59 1 0.456772 0.0975292 0.0487378 0.98231 -3.33127 0.0742551 0.251468 0.184739 
60 1 0.406172 0.148761 0.0507765 0.582608 -3.25642 -0.178814 0.113889 -0.442091 
458 1 0.467446 0.142806 0.0925189 2.05466 -3.27639 -0.288639 -0.122135 0.763495 
457 1 0.398692 0.111075 0.0968419 1.25238 -3.32083 -0.23056 -0.505006 0.616621 
99 1 0.464092 0.188581 0.0481567 3.05226 -3.24191 0.840411 -0.336357 0.0937507 
64 1 0.522049 0.140718 0.0482718 2.84696 -3.24304 -0.0300227 -0.712327 -0.186623 
103 1 0.590345 0.168647 0.0452658 1.32259 -3.32521 0.0906346 -0.152924 0.527665 
462 1 0.582336 0.127532 0.103138 1.59342 -3.28186 -0.369621 -0.837586 -0.932118 
501 1 0.534693 0.17371 0.0997173 1.44076 -3.2813 -0.105039 0.540737 -0.0469121 
62 1 0.571813 0.12547 -0.00072529 1.50996 -3.25371 1.04637 -0.0451934 0.344427 
68 1 0.637859 0.11522 0.051562 0.992287 -3.34091 -0.196955 0.338963 -0.334513 
72 1 0.704759 0.151105 0.04715 0.779532 -3.27756 -0.360405 0.444801 0.33908 
71 1 0.749497 0.103496 0.049681 0.258439 -3.31357 0.0524877 -0.268759 0.0873266 
505 1 0.649077 0.158137 0.0970238 0.85195 -3.31196 -0.174091 0.567127 0.059809 
466 1 0.694112 0.110341 0.101302 0.515653 -3.32191 0.213424 -0.256329 0.10061 
75 1 0.867067 0.0883706 0.0463839 0.871344 -3.2968 -0.369214 0.0318285 0.498878 
473 1 0.80883 0.095376 0.099787 0.294137 -3.33246 -0.188436 -0.0553813 0.0454594 
76 1 0.815883 0.135659 0.0507902 1.02884 -3.33934 -0.0545114 0.564216 -0.0317407 
470 1 0.759444 0.143799 0.0996002 0.714135 -3.33486 0.0951209 0.411426 0.0371384 
477 1 0.872934 0.130236 0.0986706 0.416674 -3.32228 -0.146538 0.210517 0.083506 
80 1 0.878695 0.174016 0.0527951 0.317656 -3.32984 -0.0279377 -0.0782839 -0.0989987 
474 1 0.820152 0.185214 0.100377 0.811378 -3.35117 0.0892751 -0.455092 -0.217136 
43 1 0.9938 0.161137 0.0481021 0.500484 -3.27771 0.257138 -0.26674 0.469745 
79 1 0.932289 0.121595 0.0515354 0.873934 -3.32526 -0.32179 0.278135 -0.326648 
402 1 0.986512 0.114945 0.0994878 0.463731 -3.32558 0.424249 0.154399 0.187805 
441 1 0.938529 0.165534 0.096961 0.602935 -3.3014 0.113778 0.332471 0.262894 
446 1 0.125531 0.18484 0.0967859 0.851088 -3.31768 -0.565199 -0.102864 0.238751 
48 1 0.0643507 0.19676 0.0481669 0.859604 -3.36753 -0.0345906 0.0309809 0.298618 
83 1 0.0115991 0.245935 0.0508047 0.479775 -3.37197 0.127102 -0.171426 0.0842053 
485 1 0.0772907 0.2332 0.105063 2.07572 -3.33155 -0.417007 -0.0139766 -0.554346 
46 1 0.123291 0.185422 1.00042 0.572941 -3.30222 -0.33574 0.406684 -0.0456989 
87 1 0.131322 0.229347 0.0493406 0.45918 -3.3307 -0.495082 -0.414123 0.0711547 
91 1 0.244877 0.214159 0.0511758 0.255815 -3.36854 -0.0915083 0.0651638 0.0250966 
92 1 0.190115 0.264022 0.0555934 1.12307 -3.25473 0.760025 0.0283336 -0.842078 
489 1 0.188895 0.217286 0.103721 0.942388 -3.32006 -0.0323478 0.443463 -0.470945 
89 1 0.187369 0.221795 0.999222 0.410508 -3.21676 -0.587399 -0.371743 0.314709 
486 1 0.138488 0.26802 0.101957 0.359681 -3.26065 -0.634755 0.0839751 0.498541 
490 1 0.249493 0.256569 0.101324 0.488344 -3.34582 0.420072 -0.116338 -0.116465 
95 1 0.360194 0.198556 0.0488429 0.570614 -3.32968 -0.418922 0.234232 0.057517 
96 1 0.308507 0.249536 0.051517 0.408606 -3.29709 -0.535542 -0.202754 0.10726 
493 1 0.305497 0.205395 0.0983608 0.912049 -3.30744 -0.540926 0.308897 0.12079 
494 1 0.366183 0.241074 0.0994721 0.27874 -3.30306 -0.339133 0.118871 0.32472 
100 1 0.421607 0.238544 0.0536231 1.56232 -3.30651 -0.184952 -0.195177 -0.610155 
139 1 0.490354 0.268193 0.0559832 1.42997 -3.334 -0.349293 0.126283 -0.487518 
497 1 0.413445 0.192171 0.0985388 0.495184 -3.30331 -0.0533888 -0.0940871 0.496832 
498 1 0.48061 0.222439 0.100335 1.12829 -3.32113 0.253905 0.57694 -0.0313141 
537 1 0.427862 0.275766 0.102081 0.476205 -3.26614 0.344413 -0.0293768 -0.287801 
104 1 0.536329 0.215069 0.0487225 1.3913 -3.36382 0.192556 0.171891 0.295735 
108 1 0.606054 0.254036 0.052702 0.751523 -3.35754 -0.231636 -0.244793 -0.0514857 
502 1 0.599414 0.209427 0.100763 0.503904 -3.34161 0.198345 -0.0197833 -0.627026 
541 1 0.545558 0.260238 0.0995149 0.434701 -3.30428 0.205156 -0.128575 0.026523 
102 1 0.543964 0.26195 0.00524228 0.788411 -3.30306 0.236726 0.160254 -0.00073249 
105 1 0.595111 0.214711 0.0029277 1.16024 -3.27973 0.187304 -0.298553 -0.2442 
107 1 0.656296 0.200344 0.0466487 1.42017 -3.30344 -0.397567 0.139686 0.396644 
509 1 0.714267 0.19738 0.096219 0.668684 -3.31095 -0.570164 -0.419997 0.351654 
112 1 0.712743 0.239989 0.0457559 1.40474 -3.31635 0.214289 -0.00660588 0.0542641 
506 1 0.664321 0.246116 0.10028 0.621301 -3.30674 -0.237527 -0.444398 0.0517164 
115 1 0.829842 0.225023 0.0499879 0.211967 -3.30645 0.23261 0.0994293 0.147123 
111 1 0.766083 0.189693 0.0474146 0.466377 -3.29428 -0.157933 -0.193329 0.260417 
517 1 0.83797 0.270429 0.0986316 0.968334 -3.27523 -0.249046 -0.528252 -0.451428 
513 1 0.772559 0.233759 0.0968091 0.419764 -3.28274 0.360497 0.120766 0.00843037 
116 1 0.779661 0.271766 0.0466332 1.07555 -3.35989 -0.0916097 0.420935 0.123765 
442 1 0.00628625 0.20262 0.0978323 0.52033 -3.36168 0.0676825 -0.0849659 0.229475 
44 1 0.944212 0.210419 0.0533573 0.518289 -3.34095 0.131812 0.400434 -0.154663 
119 1 0.892518 0.26458 0.0501715 1.48918 -3.34396 0.36011 -0.58241 -0.387929 
478 1 0.889035 0.217774 0.0999511 0.452684 -3.35438 0.0482538 0.200482 -0.119718 
481 1 0.95672 0.258095 0.103561 2.73158 -3.25636 -0.2075 -1.10479 -0.841861 
88 1 0.0783583 0.280087 0.049531 0.519352 -3.35026 0.0132232 -0.461019 0.0933287 
123 1 0.0320458 0.328648 0.0519936 1.1381 -3.27555 -0.566157 -0.0609946 -0.222259 
128 1 0.0926521 0.361729 0.0477077 0.596523 -3.28658 -0.0775426 0.355643 -0.0643076 
482 1 0.0271557 0.284704 0.101574 1.35435 -3.22897 -0.410971 -0.0920445 -0.406036 
525 1 0.0843919 0.320871 0.101833 0.315028 -3.26985 0.467334 -0.248536 -0.180987 
125 1 0.085002 0.319119 0.997506 0.73333 -3.337 0.163977 0.384954 0.206412 
127 1 0.141677 0.313694 0.0502937 0.327643 -3.31293 0.104756 -0.127045 0.0883511 
132 1 0.210092 0.347235 0.056325 1.83679 -3.24534 -0.693678 -0.483959 -0.70185 
526 1 0.145556 0.35519 0.0993635 0.728315 -3.32 0.469328 0.00775266 0.339596 
529 1 0.195751 0.304354 0.101767 1.28862 -3.31403 0.696951 0.545351 0.334038 
131 1 0.258551 0.301156 0.054312 1.33171 -3.32657 -0.534666 -0.680215 -0.58586 
129 1 0.195354 0.305513 -0.000259225 0.705999 -3.31072 0.679891 0.291445 0.421087 
126 1 0.151791 0.354609 0.00188515 0.897909 -3.35475 -0.367166 0.145103 -0.224542 
136 1 0.320199 0.334107 0.0469463 0.841998 -3.3022 0.0847015 0.0626685 0.217599 
533 1 0.31779 0.291208 0.0974706 0.633484 -3.29872 -0.50244 -0.221307 0.808173 
130 1 0.261527 0.340523 0.997309 0.714131 -3.3623 -0.375422 -0.293044 0.382242 
135 1 0.368723 0.286742 0.0495856 1.17385 -3.28806 0.707465 -0.375069 -0.325268 
530 1 0.269397 0.339419 0.10305 0.904208 -3.32613 -0.426271 0.0112421 0.0286378 
133 1 0.313441 0.287671 0.999292 1.02533 -3.23694 -0.97641 0.381699 0.132019 
134 1 0.374007 0.322101 0.997427 1.4902 -3.28838 0.859183 0.845977 0.337574 
534 1 0.381217 0.324049 0.0972822 0.659742 -3.30085 0.280135 0.624361 0.15675 
140 1 0.441099 0.317841 0.0512209 0.932546 -3.31533 -0.510362 -0.186634 -0.288709 
538 1 0.492479 0.31305 0.100194 0.899437 -3.25977 0.333163 -0.0369166 -0.282272 
577 1 0.446776 0.360822 0.0976857 0.564297 -3.32879 -0.545221 -0.0339539 0.282877 
144 1 0.504302 0.354485 0.0497953 0.484645 -3.31512 -0.0259979 -0.399962 0.0750993 
137 1 0.432759 0.276586 0.00106725 0.661249 -3.32242 -0.614986 0.0651177 0.337684 
143 1 0.556023 0.303435 0.0513841 0.593753 -3.29221 -0.636282 -0.100276 -0.0356147 
545 1 0.608119 0.296305 0.100373 0.40029 -3.23065 0.0928339 -0.222745 0.11588 
148 1 0.615613 0.340404 0.0502981 0.453861 -3.31129 0.257896 0.152794 -0.313587 
542 1 0.56489 0.344426 0.098258 2.00485 -3.2969 -0.796334 0.567661 0.3221 
145 1 0.606986 0.300095 0.000509677 0.861157 -3.29676 0.268222 -0.290154 0.170082 
142 1 0.556184 0.345547 0.999902 0.310233 -3.31608 0.386031 0.384823 0.0343617 
147 1 0.669843 0.288934 0.0572599 2.7271 -3.30298 -0.0544705 0.125852 -1.02784 
151 1 0.73331 0.325784 0.0478106 0.864368 -3.29921 -0.328505 -0.79168 0.26339 
549 1 0.671789 0.329157 0.100638 0.855341 -3.25843 0.393194 0.865614 0.0100032 
510 1 0.727608 0.282174 0.104659 1.97023 -3.20435 -0.170666 0.41828 -1.24815 
120 1 0.839574 0.310335 0.0458583 0.944759 -3.34657 0.393433 0.11017 0.181 
155 1 0.793795 0.359291 0.0458181 0.318773 -3.27722 0.332972 0.169031 0.268865 
157 1 0.847898 0.351808 0.993325 1.51135 -3.29535 0.966856 0.121547 0.413195 
514 1 0.787472 0.319221 0.0991529 0.876914 -3.33256 0.374798 -0.321789 -0.304471 
557 1 0.856536 0.352175 0.0989397 0.946983 -3.362 -0.397032 -0.33821 0.0446169 
84 1 0.965803 0.295736 0.0486416 0.773455 -3.27424 -0.563202 -0.350186 0.114183 
159 1 0.909741 0.342752 0.0478274 0.38478 -3.37725 0.00256604 -0.11351 -0.297357 
518 1 0.905556 0.301201 0.0974785 0.79199 -3.2677 -0.341913 0.459503 0.301075 
521 1 0.967917 0.335221 0.0942149 1.98378 -3.29762 0.4388 0.381843 0.688341 
522 1 0.0351946 0.371026 0.10198 0.632577 -3.32743 -0.35253 -0.261799 -0.279468 
163 1 0.0429893 0.411897 0.0475689 0.507635 -3.31764 0.0128111 0.190841 0.34584 
168 1 0.107519 0.444726 0.0500329 1.111 -3.29339 -0.445066 0.343084 -0.081663 
565 1 0.0966366 0.404333 0.100419 0.368556 -3.30724 0.239204 0.0813192 0.0950383 
167 1 0.155038 0.396045 0.0533828 0.670047 -3.26896 -0.0523188 -0.0163389 -0.447148 
172 1 0.214393 0.431289 0.0569378 1.86656 -3.28151 0.440708 0.333292 -0.778826 
569 1 0.215097 0.387773 0.101313 0.616186 -3.22997 -0.523001 0.0830034 0.420194 
566 1 0.155699 0.442176 0.101691 2.0618 -3.29966 0.216534 -0.130953 0.416903 
166 1 0.156064 0.440314 0.998722 1.41473 -3.30286 0.901431 -0.030833 0.267105 
171 1 0.267834 0.381722 0.0539521 0.924579 -3.2686 0.731916 0.23794 -0.814548 
176 1 0.336502 0.415794 0.0491017 0.554244 -3.28406 -0.616599 0.326943 0.103255 
573 1 0.335081 0.374486 0.0980069 1.01128 -3.27108 -0.844861 -0.0961815 0.105699 
570 1 0.276857 0.42267 0.0980324 0.789919 -3.31805 0.534446 0.331809 0.342383 
175 1 0.386288 0.368385 0.050117 0.43523 -3.28977 0.121205 -0.258286 -0.178978 
179 1 0.457706 0.402111 0.0507422 1.69747 -3.31377 -0.490586 0.149435 -0.110939 
578 1 0.461692 0.443161 0.10298 0.832692 -3.31671 -0.440517 0.474904 -0.453907 
574 1 0.391655 0.411808 0.0961595 1.20988 -3.26924 0.82839 0.00286199 0.255584 
183 1 0.562468 0.391248 0.0486081 0.788889 -3.31782 -0.00037051 -0.280871 0.171034 
184 1 0.515937 0.439639 0.0525305 0.470329 -3.27654 -0.158118 -0.32768 -0.281241 
187 1 0.624448 0.423565 0.0469738 1.07704 -3.27389 0.55977 0.0794131 0.540037 
581 1 0.510714 0.392846 0.102869 1.33274 -3.30693 0.355797 0.266074 -0.379888 
585 1 0.573582 0.431428 0.102209 0.382028 -3.35118 0.0267088 -0.0332824 -0.137629 
546 1 0.626287 0.38177 0.0986068 0.617619 -3.34438 -0.449999 -0.0641238 0.18259 
553 1 0.738015 0.365333 0.099078 0.215018 -3.23412 -0.0597705 -0.076497 0.299068 
152 1 0.684848 0.370824 0.0534876 2.67668 -3.19029 -0.964466 -0.0411084 -0.643456 
550 1 0.688435 0.414209 0.0950569 1.09018 -3.27412 0.0241315 0.447657 0.770097 
156 1 0.741519 0.407049 0.0476491 0.696809 -3.29724 0.786774 0.55589 -0.225517 
593 1 0.758935 0.450234 0.0988857 1.30394 -3.28962 -0.375189 -0.525065 -0.352418 
193 1 0.750066 0.450856 0.000527202 0.45936 -3.39164 0.325208 -0.186603 -0.268348 
160 1 0.862901 0.390573 0.0480161 0.26754 -3.3351 -0.0620073 -0.000803856 -0.088308 
195 1 0.815333 0.439451 0.0462598 1.20247 -3.35245 -0.487422 0.156228 0.295332 
197 1 0.872058 0.43366 0.999659 0.387352 -3.31867 -0.328244 0.112433 0.174175 
554 1 0.799266 0.398547 0.0960058 1.29342 -3.35728 0.73896 0.431745 0.438577 
597 1 0.872128 0.42997 0.097799 1.50628 -3.29801 -0.502821 0.170231 -0.0871814 
154 1 0.801777 0.398843 0.998022 0.408023 -3.34042 -0.101048 0.631284 0.0564482 
124 1 0.979501 0.379218 0.0496339 0.535878 -3.30034 -0.461331 -0.409088 0.252681 
199 1 0.92933 0.425652 0.050808 0.213702 -3.32362 -0.24779 0.23614 -0.341315 
561 1 0.982353 0.421561 0.100458 0.840858 -3.33086 0.553394 -0.213991 0.317068 
558 1 0.922094 0.385208 0.10115 0.673586 -3.25977 -0.0840475 -0.373322 -0.258667 
203 1 0.0590369 0.495097 0.0491836 0.763985 -3.29074 -0.370814 -0.14034 0.0565431 
605 1 0.112972 0.494253 0.104939 1.76195 -3.25358 -0.286305 -0.791457 -0.45363 
602 1 0.0653876 0.538761 0.104194 0.872496 -3.24604 -0.376343 0.297958 -0.415814 
208 1 0.115939 0.530746 0.0509322 1.00591 -3.32601 0.737156 0.592789 0.105415 
562 1 0.0517706 0.453937 0.10259 0.604614 -3.36932 -0.00891516 -0.0339345 -0.118204 
202 1 0.0623353 0.539288 0.9964 1.0508 -3.31703 0.0132772 0.212852 0.714654 
205 1 0.112621 0.492933 0.999106 0.85188 -3.29971 -0.0430966 -0.313082 0.169305 
207 1 0.169314 0.4806 0.0520888 0.638486 -3.32207 -0.258484 0.315681 -0.00564225 
212 1 0.229786 0.517028 0.0539044 0.914944 -3.32117 0.459563 0.128462 0.0630587 
609 1 0.228862 0.473577 0.101367 0.57639 -3.26122 -0.235155 0.179417 -0.13222 
606 1 0.176245 0.52524 0.108179 1.37043 -3.28031 0.0239331 0.29948 -0.735978 
206 1 0.177912 0.525367 0.00441781 0.414716 -3.29835 -0.395262 -0.0364508 -0.164721 
211 1 0.282761 0.469387 0.0511948 0.791751 -3.34598 -0.0265292 -0.432196 -0.014733 
215 1 0.354028 0.497862 0.0505354 1.82752 -3.35869 -0.205867 0.33319 0.0592342 
613 1 0.340735 0.456454 0.102337 1.24985 -3.30517 -0.0667821 0.778741 -0.752925 
610 1 0.292305 0.509445 0.09924 0.84246 -3.32431 0.198152 -0.190387 0.463204 
174 1 0.337469 0.459718 0.00088413 0.709367 -3.27866 0.733134 -0.225318 0.0250661 
180 1 0.404308 0.449131 0.0475133 1.23767 -3.38171 0.0581397 0.370518 0.0330484 
219 1 0.470912 0.487098 0.0555199 1.68853 -3.30399 -0.695922 0.0707258 -0.621964 
621 1 0.473097 0.530166 0.100777 0.261019 -3.3329 -0.0331946 0.051063 -0.0857841 
220 1 0.411066 0.539954 0.0549795 1.86426 -3.32983 0.039285 -0.333768 -0.221194 
617 1 0.408072 0.495245 0.100159 0.581013 -3.33959 -0.0184745 -0.222154 -0.0642426 
188 1 0.578319 0.471172 0.0490977 0.748223 -3.22005 0.298072 0.569376 0.197624 
582 1 0.523433 0.480065 0.103248 0.376198 -3.25033 -0.228601 -0.367761 0.218535 
223 1 0.53148 0.525757 0.0488149 0.973485 -3.28405 -0.129282 -0.435274 0.0886454 
586 1 0.582084 0.512652 0.0987893 1.54518 -3.26998 0.961596 0.832907 -0.0123294 
191 1 0.693242 0.456195 0.051021 0.592441 -3.33191 0.0716725 0.403467 -0.213846 
192 1 0.644028 0.509063 0.0490856 0.5748 -3.37947 0.262553 -0.185743 0.0326307 
231 1 0.71159 0.542261 0.0504941 0.711669 -3.31766 -0.19107 -0.341292 -0.223763 
589 1 0.634942 0.467823 0.0969578 1.38397 -3.34281 0.494331 -0.145362 0.348482 
590 1 0.710524 0.497435 0.0991237 1.97448 -3.30329 -0.822914 0.302216 0.0605222 
186 1 0.634109 0.465967 0.999904 0.195516 -3.31912 0.281775 0.216175 -0.232181 
196 1 0.760962 0.491088 0.0487257 0.442252 -3.29766 0.00246868 -0.127341 -0.0502615 
194 1 0.82099 0.485887 0.00339822 0.879804 -3.30648 -0.193928 -0.541901 -0.352181 
235 1 0.829001 0.527021 0.0509073 0.317065 -3.24631 -0.424 0.297936 -0.237613 
233 1 0.771483 0.531405 0.00241994 1.33026 -3.31134 -0.440497 0.270409 -0.342947 
200 1 0.87709 0.476655 0.050722 0.441495 -3.34878 0.315333 -0.407709 0.277509 
594 1 0.817511 0.48745 0.0965633 1.32134 -3.29636 0.0999502 -0.2145 0.350959 
633 1 0.76841 0.535722 0.0967213 0.907266 -3.33545 0.288484 -0.0383156 0.613175 
637 1 0.88294 0.523019 0.0955898 1.68353 -3.31884 0.50846 -0.402554 0.652097 
201 1 0.996548 0.504242 0.000609258 0.423668 -3.29156 0.49142 0.436207 0.211073 
164 1 0.994025 0.461084 0.0510579 0.395372 -3.32551 0.028886 0.0702528 -0.193311 
198 1 0.938846 0.467802 -0.000530294 1.09968 -3.29298 -0.656865 0.0966088 0.502839 
239 1 0.942045 0.511774 0.0502907 0.361992 -3.27355 0.522582 -0.0147802 0.505967 
601 1 0.00449847 0.503224 0.0970356 1.28583 -3.28893 -0.335252 0.18171 0.34924 
598 1 0.939079 0.470794 0.0995595 1.3355 -3.28389 -0.400498 -0.262883 -0.287091 
237 1 0.889275 0.518758 0.00746659 2.60099 -3.21255 -0.771461 -0.102459 -0.905339 
243 1 0.0666662 0.580223 0.0498319 0.951215 -3.35211 0.599882 0.383938 -0.28634 
642 1 0.0746374 0.627422 0.0977809 0.95548 -3.31761 0.24559 -0.259159 0.449379 
245 1 0.131536 0.575304 0.00232936 1.40094 -3.28924 -1.07837 -0.308313 0.0325594 
641 1 0.0161919 0.588615 0.0993433 0.742401 -3.28669 -0.337327 0.0255548 -0.01526 
244 1 0.0179195 0.634858 0.0510913 0.452009 -3.32994 -0.237702 -0.245568 -0.151265 
241 1 0.00653323 0.5947 0.999829 1.03525 -3.35049 -0.00458082 -0.334687 0.0752168 
248 1 0.133834 0.618529 0.0531393 0.440161 -3.35303 -0.236483 -0.111624 -0.270654 
645 1 0.125482 0.575356 0.102911 0.210649 -3.31073 -0.145165 0.172526 -0.224617 
247 1 0.180791 0.569546 0.0568411 1.14808 -3.32872 0.307233 -0.391055 -0.300979 
649 1 0.240862 0.558425 0.103287 0.311506 -3.34287 -0.105807 0.147436 -0.0306319 
251 1 0.249911 0.60039 0.0548198 0.482529 -3.32871 -0.242234 -0.0563548 -0.0175804 
646 1 0.190333 0.612504 0.104519 0.576093 -3.25996 0.0345596 -0.546503 0.0314095 
249 1 0.190622 0.608422 0.00219113 0.471635 -3.28852 0.504103 0.501799 0.129513 
210 1 0.242598 0.555686 0.0053774 1.12384 -3.32994 0.223796 0.654364 -0.0356075 
614 1 0.357289 0.547057 0.107557 2.07452 -3.31808 0.0503196 -0.395791 -0.414251 
216 1 0.304537 0.549166 0.0554916 1.23055 -3.34378 -0.162672 0.121036 -0.488383 
255 1 0.365599 0.587812 0.0517866 0.503426 -3.28238 -0.245856 -0.174044 0.451354 
653 1 0.306662 0.592789 0.105497 0.520742 -3.33013 0.329939 0.268976 -0.462626 
259 1 0.428321 0.620274 0.0527958 0.66808 -3.31806 0.500626 0.439097 0.00510664 
224 1 0.483494 0.573173 0.0485201 0.983319 -3.26442 -0.791031 0.225622 0.343882 
618 1 0.42479 0.580172 0.101141 0.308579 -3.29591 -0.203889 -0.130405 0.132603 
622 1 0.490233 0.612508 0.101689 1.00529 -3.31707 -0.104891 0.772711 -0.313122 
227 1 0.596575 0.557311 0.0476821 0.463016 -3.32773 0.00996221 0.255892 0.0256964 
228 1 0.544572 0.609218 0.0454911 0.783995 -3.3282 0.274007 -0.0187151 0.471667 
625 1 0.534053 0.56608 0.0973219 0.939301 -3.25553 0.688708 -0.249363 0.31914 
626 1 0.601227 0.597123 0.0983908 0.822047 -3.35039 0.450344 0.448372 -0.385559 
226 1 0.598139 0.600753 0.992421 2.17195 -3.28444 0.703862 -0.302771 1.25898 
222 1 0.534426 0.566015 1.00042 0.254968 -3.31172 0.188174 -0.163504 -0.510096 
629 1 0.653308 0.547228 0.101486 0.724853 -3.33846 -0.156809 -0.218158 -0.210302 
232 1 0.66221 0.589285 0.0491485 0.70807 -3.34076 -0.353889 0.245281 -0.279872 
230 1 0.727044 0.580445 1.00065 2.96771 -3.30967 -0.686426 0.081729 -0.316595 
271 1 0.724504 0.623531 0.0444987 1.41221 -3.2835 0.203191 0.127459 0.341959 
630 1 0.713799 0.582749 0.101181 1.48919 -3.28268 0.742271 0.256211 -0.449846 
669 1 0.669087 0.636158 0.0979035 0.998223 -3.29219 -0.683615 -0.383725 -0.0985441 
236 1 0.778877 0.575848 0.0508809 0.481957 -3.32946 0.0101263 -0.0290153 -0.237416 
234 1 0.835216 0.566242 0.998937 0.989932 -3.33174 -0.508236 0.321017 0.21407 
275 1 0.841165 0.612144 0.0528967 0.804398 -3.25872 -0.0207157 0.167535 -0.535294 
634 1 0.836993 0.570448 0.102788 1.04238 -3.24194 -0.465927 -0.705144 -0.56569 
673 1 0.784408 0.617056 0.095346 0.937343 -3.25176 -0.521225 -0.044438 0.560418 
273 1 0.786159 0.618409 -0.00257182 0.523288 -3.34934 0.138266 0.0288597 0.340513 
204 1 0.00428443 0.547491 0.0495434 0.205333 -3.35584 0.132175 -0.0893949 -0.136275 
240 1 0.889023 0.566037 0.0499387 1.265 -3.22741 -0.14265 -0.805105 0.348411 
279 1 0.948975 0.598312 0.0484433 0.997245 -3.24793 1.18722 0.230854 0.279751 
638 1 0.952371 0.555027 0.101044 0.817479 -3.3577 -0.513354 -0.186673 -0.345771 
677 1 0.899088 0.604998 0.101025 0.369102 -3.26231 0.200694 0.121483 -0.0586144 
238 1 0.945257 0.556568 0.000469817 0.393427 -3.29815 0.375301 0.297514 0.0573303 
277 1 0.893137 0.603478 0.00209771 0.994403 -3.25772 0.303036 0.465722 -0.802008 
283 1 0.0839127 0.667764 0.0522476 0.342182 -3.32003 -0.170243 0.287928 -0.325586 
284 1 0.0258794 0.718341 0.0521586 1.08635 -3.33459 0.755506 -0.0457317 0.046399 
681 1 0.02393 0.677058 0.103872 0.916764 -3.28718 -0.219723 -0.344164 -0.620282 
682 1 0.0870264 0.709287 0.101151 0.428588 -3.26462 0.272978 0.319376 -0.210114 
285 1 0.0900724 0.710426 0.00240137 0.394882 -3.32986 -0.374358 -0.01072 0.234536 
685 1 0.142391 0.664017 0.0996843 1.03705 -3.29471 -0.339552 -0.546189 0.487405 
252 1 0.201625 0.649364 0.0575837 2.1946 -3.27743 0.158961 0.414386 -1.02516 
287 1 0.149153 0.702902 0.0515183 0.613894 -3.31129 -0.0588676 -0.0867898 -0.327443 
689 1 0.20822 0.694208 0.100787 0.567465 -3.33083 0.248763 0.426979 0.28878 
650 1 0.259447 0.643212 0.104704 0.610022 -3.28175 -0.164188 0.149828 -0.173216 
246 1 0.136625 0.657473 -0.00057783 1.26077 -3.32342 0.612871 0.348572 0.344425 
256 1 0.312016 0.637116 0.0520295 0.4462 -3.3166 0.240749 0.484884 0.136426 
657 1 0.372537 0.632207 0.100777 0.455137 -3.35685 -0.359325 -0.402302 0.048239 
291 1 0.263845 0.688428 0.0526206 0.181935 -3.34981 -0.133004 -0.302638 -0.166446 
260 1 0.380065 0.674425 0.0524466 0.52407 -3.33648 -0.504306 -0.167579 -0.174736 
654 1 0.320058 0.679766 0.102464 0.614288 -3.33009 0.0504078 0.23927 -0.291655 
297 1 0.385655 0.714195 0.99499 1.36982 -3.28639 0.234301 0.0272299 0.412613 
264 1 0.445075 0.70596 0.0513149 0.522575 -3.28605 -0.252741 0.183779 -0.393832 
263 1 0.493165 0.656141 0.0497284 0.260776 -3.34479 -0.0628806 -0.0561848 0.166569 
658 1 0.389012 0.717371 0.0980535 0.83199 -3.31198 -0.354755 -0.151442 -0.114376 
661 1 0.437326 0.665639 0.102496 0.43842 -3.26915 0.108519 -0.366518 -0.246284 
662 1 0.49685 0.700159 0.100852 0.689975 -3.28468 0.569015 0.33272 -0.122875 
262 1 0.498288 0.699714 0.997432 0.497734 -3.34751 0.0287349 -0.236173 0.0436057 
267 1 0.61272 0.64246 0.048668 0.473925 -3.36073 -0.424087 -0.299823 -0.00826382 
268 1 0.556706 0.690778 0.0482853 0.257298 -3.31559 -0.0506783 -0.0100277 -0.0286858 
266 1 0.620541 0.686445 0.997853 1.31135 -3.32002 -0.740124 -0.786116 0.143997 
666 1 0.615402 0.684198 0.101307 0.500541 -3.31953 0.0722246 -0.0829601 -0.222307 
665 1 0.548899 0.652396 0.100232 1.24701 -3.32775 0.218285 -0.494043 -0.122969 
265 1 0.55046 0.649911 7.19649e-05 0.447474 -3.31966 0.120074 0.178753 -0.148842 
269 1 0.669518 0.635256 0.998615 0.675184 -3.30754 -0.735263 -0.464035 0.207999 
272 1 0.675217 0.677171 0.0510724 0.786978 -3.30728 0.131795 0.0062918 -0.210888 
270 1 0.731604 0.668096 0.997485 0.41883 -3.27485 0.488525 0.411798 0.523235 
309 1 0.682354 0.717244 0.00265402 1.13356 -3.25962 0.123797 0.338966 -0.473618 
311 1 0.741127 0.713381 0.0453057 1.07934 -3.31239 0.301664 -0.640111 0.499247 
670 1 0.736917 0.662823 0.0940976 3.49718 -3.22348 -0.0154294 1.14777 0.168216 
709 1 0.683413 0.716727 0.0990685 1.04449 -3.28889 -0.374511 -0.0524604 -0.403675 
276 1 0.787961 0.66082 0.0461124 0.877147 -3.33539 0.509308 0.285085 -0.291706 
315 1 0.854061 0.694338 0.0498924 1.22257 -3.36071 0.0635546 0.444809 -0.0977372 
674 1 0.843011 0.654456 0.102157 1.09707 -3.32189 0.453432 0.157007 -0.26625 
713 1 0.801885 0.704419 0.101466 1.79321 -3.34852 -0.476666 0.274984 -0.40111 
274 1 0.851274 0.653603 0.995192 1.32926 -3.33929 -0.31468 0.354383 0.583018 
313 1 0.798956 0.707079 0.994085 1.21956 -3.33479 -0.309923 -0.0924609 0.742225 
280 1 0.903795 0.64629 0.0483173 0.673946 -3.28801 -0.210506 0.329308 0.413536 
319 1 0.961883 0.684812 0.0500236 1.20881 -3.28272 0.51444 -0.194232 0.313372 
678 1 0.963592 0.638386 0.098542 0.857187 -3.35062 -0.13358 0.204749 0.165251 
317 1 0.911852 0.693881 0.000776067 0.908677 -3.32827 -0.435755 -0.084887 -0.530767 
717 1 0.910462 0.688522 0.101947 0.838357 -3.31515 -0.388503 0.168589 -0.39656 
318 1 0.978466 0.728572 0.00138253 0.931201 -3.29725 -0.524888 -0.19087 -0.408323 
288 1 0.0994305 0.751191 0.0530593 0.740432 -3.34825 -0.388307 0.0729363 -0.420636 
323 1 0.0447188 0.803919 0.0486048 0.811296 -3.29579 0.352954 0.115946 0.564721 
721 1 0.0404033 0.759197 0.0994659 0.492839 -3.33587 -0.0254082 0.307679 0.132453 
725 1 0.103587 0.795525 0.0995916 0.286116 -3.34406 0.278251 -0.13208 0.0181086 
282 1 0.0401615 0.761709 0.00403258 0.632412 -3.30229 0.0394199 -0.388571 -0.308843 
292 1 0.215853 0.739804 0.052646 0.571759 -3.35635 -0.123925 -0.231949 0.0263452 
327 1 0.162816 0.787018 0.0526761 0.380723 -3.35984 0.0457225 0.146801 -0.204966 
686 1 0.154692 0.742455 0.098706 0.907831 -3.30518 0.341693 0.406165 0.511122 
690 1 0.221707 0.782347 0.10275 0.514975 -3.34719 0.0344044 -0.186865 -0.365125 
295 1 0.323963 0.725073 0.0500357 1.18996 -3.30305 0.560526 -0.254541 0.199992 
296 1 0.280814 0.77405 0.0520685 0.343609 -3.28885 -0.480834 -0.205568 -0.130495 
294 1 0.339036 0.765775 1.00136 0.806044 -3.3123 -0.52052 0.0123414 -0.486265 
300 1 0.344398 0.807296 0.0476859 0.497709 -3.27575 0.418222 0.0689884 0.0896687 
694 1 0.290288 0.816655 0.0962066 1.164 -3.31417 -0.297793 0.194382 0.507631 
693 1 0.276106 0.73119 0.1046 1.34324 -3.27183 -1.0475 -0.129373 -0.80531 
697 1 0.335801 0.766964 0.100623 0.542745 -3.24759 0.0943117 -0.359796 -0.166009 
299 1 0.393182 0.755089 0.0467598 1.04474 -3.32597 0.274849 0.138654 0.493681 