ITEM: TIMESTEP
18500
ITEM: NUMBER OF ATOMS
4000
ITEM: BOX BOUNDS pp pp pp
3.6850639600319823e+00 3.6814936039967442e+01
-3.8673214918309347e+00 4.4367321491829941e+01
-5.4494535787757981e-01 4.1044945357878177e+01
ITEM: ATOMS id type xs ys zs c_csym c_peratom fx fy fz 
7 1 0.0903512 0.060936 0.0487674 0.400353 -3.29071 0.520404 -0.139619 0.390378 
3 1 0.02323 0.0295746 0.0513524 1.12668 -3.28793 0.316312 -0.654962 0.0781491 
2 1 0.0353356 0.0669425 0.00269595 0.23944 -3.26872 -0.0471093 0.157717 -0.439685 
5 1 0.0868217 0.0155088 0.000961163 0.719235 -3.3553 -0.169668 0.120649 0.0517205 
11 1 0.206033 0.0446074 0.0519296 0.422622 -3.27884 -0.270578 -0.186354 -0.140452 
372 1 0.14192 0.0117074 0.0516904 0.42539 -3.30979 0.0557104 -0.108694 0.0181293 
10 1 0.216743 0.0870467 -0.0019853 0.662116 -3.28932 -0.261443 0.132683 0.479591 
12 1 0.15905 0.0956453 0.0506981 0.252926 -3.31882 -0.0994822 -0.332151 -0.134701 
9 1 0.148818 0.0556477 0.00190195 1.01841 -3.25934 0.178996 -0.511928 0.425601 
16 1 0.267217 0.0768926 0.0491328 1.38461 -3.3072 0.901661 0.642803 0.296729 
15 1 0.32478 0.0295632 0.0485913 0.550779 -3.34632 -0.0483411 -0.284595 0.088441 
14 1 0.325613 0.0687789 -0.00350265 1.40639 -3.27132 0.759663 0.361385 0.478865 
20 1 0.389717 0.0625387 0.050556 0.609897 -3.25827 -0.370016 0.196778 0.086617 
19 1 0.444831 0.0154797 0.0484948 1.08254 -3.33657 -0.76304 -0.493015 -0.191848 
24 1 0.507816 0.0497167 0.0459328 1.26015 -3.26091 -0.294737 0.0713988 0.33731 
28 1 0.623015 0.0308697 0.0492337 0.819118 -3.28901 -0.075063 0.317173 0.303665 
63 1 0.572187 0.0835561 0.0484232 0.59973 -3.28293 -0.119528 -0.227832 0.232675 
461 1 0.511124 0.0905799 0.0993633 0.668139 -3.32315 0.305048 0.279633 -0.21219 
32 1 0.73545 0.0177031 0.0463681 0.658263 -3.25999 -0.163035 0.0910693 0.506178 
67 1 0.685742 0.0679284 0.0506357 0.461748 -3.32724 -0.478888 -0.0199289 0.167691 
426 1 0.673197 0.025667 0.102851 1.02396 -3.29687 -0.0334422 -0.377414 -0.383823 
36 1 0.794143 0.0538621 0.0516628 0.57563 -3.27747 0.134628 0.316736 -0.305397 
434 1 0.854608 0.0475558 0.0970949 0.770244 -3.30787 0.211568 0.0783551 0.89688 
75 1 0.858594 0.0882606 0.0511641 0.769846 -3.28277 0.467376 0.226246 -0.0726588 
34 1 0.858559 0.0495368 0.00183293 0.755663 -3.34135 -0.54328 -0.446038 0.0785093 
35 1 0.849402 0.00601279 0.0508901 0.290648 -3.34911 0.355361 -0.0643454 -0.269005 
4 1 0.973037 0.0780492 0.0468669 1.3252 -3.19693 1.0417 0.0354434 0.557942 
40 1 0.916366 0.0438808 0.0535144 1.697 -3.19831 -0.894271 -0.968471 -0.814724 
438 1 0.919227 0.0833816 0.0988154 0.458177 -3.31676 -0.00754116 0.108895 0.547742 
8 1 0.0449031 0.110647 0.050129 0.495151 -3.30531 -0.389975 0.255119 -0.105471 
47 1 0.111812 0.145362 0.0492268 0.833094 -3.3085 -0.783984 -0.165856 0.166128 
6 1 0.100102 0.102159 0.00344286 0.491201 -3.29712 0.333342 0.295527 -0.386735 
446 1 0.119155 0.185149 0.103835 0.834405 -3.3457 -0.68673 -0.112486 -0.539464 
52 1 0.174387 0.178611 0.0519001 0.433771 -3.28529 0.347305 0.237961 -0.235805 
51 1 0.223888 0.130516 0.0507683 0.623006 -3.27099 0.204198 -0.466386 -0.198081 
449 1 0.165838 0.136162 0.0965036 0.849256 -3.30741 -0.0140994 0.16768 0.748666 
49 1 0.171388 0.136903 0.00320122 1.31381 -3.31822 -0.663568 -0.206501 -0.423425 
55 1 0.338133 0.112325 0.0532679 0.778757 -3.34708 0.0890936 -0.244197 -0.50933 
56 1 0.288482 0.161968 0.0504979 0.342209 -3.3009 0.477805 0.0916372 -0.245812 
59 1 0.448032 0.102573 0.0495699 1.87065 -3.20031 -0.104099 -0.496449 0.137384 
60 1 0.403275 0.148606 0.0500286 0.366439 -3.32431 -0.302838 0.343453 0.13763 
458 1 0.461671 0.143656 0.0989918 0.755014 -3.3248 0.0675799 -0.326845 0.208751 
58 1 0.459028 0.145243 -0.000954664 1.20708 -3.27936 0.154607 -0.553103 0.319576 
57 1 0.389725 0.10912 0.000513644 1.00052 -3.32834 -0.222353 -0.419266 0.166891 
97 1 0.408399 0.191775 0.00240412 0.377575 -3.26137 0.541686 -0.0626289 0.0672522 
64 1 0.515014 0.127036 0.0478175 4.76122 -3.2408 0.88636 1.18972 0.203493 
103 1 0.579979 0.171527 0.0484222 0.677764 -3.31983 0.0490742 -0.286752 0.467942 
462 1 0.575004 0.129536 0.0962709 1.25688 -3.37617 -0.0723764 -0.406086 0.102082 
501 1 0.524381 0.178543 0.101635 0.69721 -3.25449 -0.00523957 0.0375552 -0.771118 
68 1 0.633911 0.117782 0.0472843 0.645425 -3.33689 0.28866 0.33736 0.134801 
72 1 0.69706 0.154108 0.0515138 0.570446 -3.33168 0.474558 -0.259091 -0.596855 
71 1 0.748224 0.104002 0.0532083 0.505282 -3.27518 -0.467211 -0.0395805 -0.382922 
505 1 0.641172 0.162384 0.0957203 0.658119 -3.24563 -0.548847 -0.423978 0.275117 
66 1 0.639234 0.166326 -8.04518e-05 1.16592 -3.3144 0.00348472 -0.623929 0.00116066 
473 1 0.799349 0.0952878 0.10169 0.87587 -3.30072 0.290752 -0.135061 0.0636798 
76 1 0.812911 0.135063 0.0490803 1.26114 -3.2785 0.0729002 0.78607 0.0393906 
470 1 0.758592 0.145835 0.102167 0.961697 -3.25258 -0.562924 0.0512209 -0.995992 
477 1 0.86852 0.130827 0.0989397 0.418433 -3.34717 0.0416751 0.11675 0.161217 
80 1 0.876056 0.171243 0.0501038 1.00621 -3.33349 0.00240225 0.57028 0.0102783 
74 1 0.869698 0.135077 -0.00369163 1.38247 -3.29709 -0.3787 -0.504307 0.503386 
70 1 0.756812 0.145917 -0.00151453 0.403742 -3.3618 0.0529342 -0.0269177 0.392111 
113 1 0.820192 0.185433 0.000437356 1.61872 -3.22221 -0.402759 -1.10441 -0.432447 
73 1 0.806586 0.0967397 0.00160226 0.402756 -3.31761 -0.213424 0.0227621 -0.138005 
43 1 0.99144 0.160695 0.0518025 0.62784 -3.34055 0.188102 0.132297 -0.276727 
79 1 0.925007 0.12476 0.048299 0.300216 -3.30258 -0.188372 0.136742 -0.0300448 
402 1 0.983588 0.118786 0.0940656 1.88059 -3.25988 -0.157562 -0.288123 0.859056 
48 1 0.0602685 0.193356 0.0491752 0.484505 -3.35681 -0.106381 -0.157557 0.520315 
83 1 0.0106057 0.244399 0.050969 0.468694 -3.31488 -0.431744 -0.112351 0.100048 
87 1 0.129311 0.226517 0.0504207 0.535499 -3.29516 -0.463076 0.000425409 -0.28432 
42 1 0.00159816 0.197531 0.000527105 1.17893 -3.33874 0.00120728 0.415779 -0.224168 
88 1 0.0771211 0.276659 0.0502101 0.499897 -3.32763 0.0569445 0.179926 0.1584 
46 1 0.113716 0.185342 0.000328096 0.658108 -3.334 0.166311 0.249252 0.0436048 
85 1 0.0628549 0.235301 0.00260927 1.00276 -3.2914 0.220741 0.0844373 -0.409022 
91 1 0.242874 0.212 0.0498366 0.297758 -3.23898 -0.733103 -0.206154 0.0840559 
92 1 0.190598 0.261882 0.0484793 0.453538 -3.32837 0.411285 0.0687984 -0.0583088 
89 1 0.186974 0.215936 -0.000629799 1.64552 -3.28596 -0.775714 0.559213 0.44608 
90 1 0.250662 0.252565 0.000857304 0.862756 -3.34723 -0.283749 0.448553 -0.251822 
86 1 0.127739 0.267891 -0.00270063 1.81901 -3.35083 0.534742 0.360323 0.337155 
95 1 0.353983 0.198452 0.0502022 0.27917 -3.28414 -0.406554 -0.333417 0.365339 
96 1 0.302718 0.245406 0.0521891 0.502046 -3.27018 0.489684 0.633786 -0.0597013 
94 1 0.360563 0.238296 0.00122758 0.212136 -3.29214 0.00257708 0.655757 -0.0327597 
93 1 0.298204 0.205203 6.29823e-05 0.282247 -3.22411 -0.286108 -0.0477452 -0.18069 
99 1 0.471262 0.182076 0.0507839 1.29862 -3.33228 -0.120228 0.361541 0.124518 
100 1 0.419047 0.230619 0.0530478 1.04624 -3.32693 0.370616 0.827434 -0.540401 
139 1 0.484987 0.271189 0.0530746 0.725654 -3.29984 -0.519085 -0.0342118 -0.366507 
497 1 0.409874 0.194177 0.0993748 0.837476 -3.30254 0.234519 -0.580597 0.466767 
498 1 0.474361 0.230399 0.101565 0.627225 -3.32227 -0.103808 -0.205926 0.174044 
98 1 0.478427 0.226941 0.00123125 0.745069 -3.23188 -1.21844 -0.694853 0.616262 
104 1 0.532087 0.223574 0.053624 1.06069 -3.30083 -0.277754 -0.837251 -0.108344 
108 1 0.597818 0.253703 0.0496774 0.256055 -3.2946 0.340898 0.160237 0.0158699 
102 1 0.533059 0.262008 0.00298057 1.44604 -3.21472 1.23591 0.58093 -0.238027 
105 1 0.589053 0.213317 0.0028707 0.324031 -3.29687 -0.326216 -0.0867227 -0.328255 
107 1 0.650419 0.204247 0.0484373 0.502581 -3.33914 -0.0841341 0.213759 0.101263 
509 1 0.703923 0.195815 0.0986855 0.410641 -3.28983 0.315807 0.377488 -0.196028 
112 1 0.713549 0.240309 0.0482082 0.252793 -3.32702 -0.20017 -0.394493 -0.0678299 
115 1 0.82623 0.222524 0.046567 0.733361 -3.2615 0.458053 0.594677 0.79968 
111 1 0.765438 0.186409 0.0496377 0.755512 -3.35953 -0.390749 -0.0546187 0.172778 
513 1 0.770123 0.232028 0.0957358 0.42444 -3.321 -0.0615742 -0.15165 0.143752 
116 1 0.775589 0.276423 0.0459185 0.472652 -3.26243 0.378993 -0.141046 0.294568 
44 1 0.942177 0.211357 0.0474333 0.630682 -3.39307 -0.00606579 -0.195784 0.256123 
119 1 0.89125 0.260205 0.0455109 0.668784 -3.37011 0.123311 -0.141095 0.560841 
481 1 0.951018 0.251048 0.100889 0.30987 -3.33355 -0.0827726 0.0547351 -0.179662 
81 1 0.953682 0.254316 -0.00140701 0.839586 -3.31261 -0.0721696 -0.531671 0.583884 
117 1 0.883158 0.215809 -0.000778735 0.461488 -3.27871 0.819471 0.392273 0.0214246 
123 1 0.0242815 0.327104 0.050682 0.331355 -3.25204 0.131877 -0.0992112 0.24836 
482 1 0.0143146 0.28462 0.100777 0.319423 -3.33541 0.276821 -0.00486301 -0.0950547 
82 1 0.0154741 0.290942 0.00387203 1.70007 -3.32801 0.158594 -0.637848 -0.523769 
128 1 0.0865614 0.362813 0.0481207 0.599699 -3.26696 0.299477 0.104588 0.0538309 
122 1 0.0292514 0.371294 -0.00219853 0.687278 -3.26614 0.702956 0.210246 0.406907 
127 1 0.143733 0.310175 0.0506574 0.886138 -3.30565 -0.419999 0.233312 -0.00220845 
132 1 0.202743 0.350023 0.049922 0.960805 -3.30136 0.275257 -0.445648 0.00907437 
129 1 0.199351 0.304646 0.002216 0.703134 -3.3289 -0.249295 -0.196588 -0.134222 
126 1 0.146179 0.353202 -0.00319897 0.893236 -3.28831 0.428519 0.529695 0.463859 
131 1 0.25902 0.296661 0.0493491 0.668212 -3.26609 -0.746895 -0.654376 0.270915 
136 1 0.317105 0.330027 0.0488302 0.764314 -3.24405 0.91518 0.591871 0.100285 
135 1 0.367918 0.2824 0.0505245 0.267512 -3.35999 0.00106494 -0.10758 -0.122638 
130 1 0.260301 0.340847 0.000964471 0.276231 -3.23525 -0.630459 -0.364313 0.0107456 
133 1 0.31401 0.289234 -0.00178256 0.644023 -3.31173 -0.425015 -0.244419 0.140504 
140 1 0.43089 0.319636 0.0483412 0.758711 -3.34612 0.281669 -0.269808 0.115292 
538 1 0.495589 0.312002 0.101104 0.383739 -3.25033 -0.123886 -0.131207 -0.401093 
577 1 0.446159 0.358281 0.0979425 1.45887 -3.31825 -0.140702 0.544714 0.305412 
144 1 0.502058 0.351842 0.051008 0.70926 -3.34857 -0.0130424 0.215445 -0.203539 
137 1 0.42391 0.274322 0.000566145 0.240699 -3.35362 0.0774201 0.138901 0.270682 
141 1 0.486988 0.311305 -0.00113584 0.683435 -3.33477 0.0114839 -0.00404004 0.360796 
143 1 0.55254 0.302878 0.0496272 0.823086 -3.29787 -0.543757 0.0547 0.0569482 
148 1 0.611566 0.339683 0.0477415 0.431257 -3.27767 0.0277466 0.214963 0.390775 
147 1 0.663065 0.288589 0.046438 0.411203 -3.30591 -0.0736478 0.216577 0.325243 
151 1 0.72709 0.324688 0.0442639 0.917649 -3.30967 -0.0859664 0.199451 0.540817 
150 1 0.734059 0.366209 -0.0012192 0.506127 -3.35915 0.251652 0.0484925 -0.142887 
120 1 0.842813 0.309591 0.0450364 0.629854 -3.29278 -0.16444 -0.271994 0.582348 
155 1 0.794332 0.356815 0.0520483 1.44808 -3.33511 -0.0862867 0.477206 -0.535099 
514 1 0.785037 0.318941 0.0991607 0.469788 -3.3375 -0.0124542 -0.136311 -0.00521205 
84 1 0.956081 0.295179 0.0535192 0.909636 -3.31582 0.109129 -0.366195 -0.369873 
159 1 0.907148 0.342142 0.0477735 0.857163 -3.25576 -0.117598 0.52488 0.132285 
518 1 0.898889 0.304877 0.0999791 1.01552 -3.24398 -0.316458 -0.976603 -0.429548 
121 1 0.966718 0.338503 0.00148664 0.740192 -3.25397 -0.201311 -0.552118 -0.457283 
163 1 0.0380699 0.413055 0.0483805 0.360765 -3.35576 -0.0807405 -0.130093 0.118665 
168 1 0.102197 0.445656 0.0478607 0.684747 -3.3328 0.363019 0.153068 0.267831 
562 1 0.0499121 0.457536 0.105686 2.63506 -3.23423 -0.612585 -1.07393 -0.852681 
165 1 0.0981106 0.406072 -0.00165274 0.470173 -3.34096 -0.4678 -0.479232 0.000451246 
167 1 0.152598 0.393874 0.0512544 0.864967 -3.26077 -0.12176 0.555248 -0.285329 
172 1 0.215922 0.429347 0.0516343 1.17903 -3.32942 -0.159012 0.547117 -0.174751 
166 1 0.157299 0.441089 -0.00464537 0.733122 -3.23765 0.412108 0.105392 0.803575 
169 1 0.206054 0.391305 -0.000390713 0.593467 -3.3493 0.0900441 -0.0610662 -0.052704 
171 1 0.27099 0.382332 0.0501037 0.596662 -3.30099 -0.439988 -0.281079 0.258901 
176 1 0.332326 0.416671 0.0489579 0.555197 -3.28511 0.352537 0.000461632 0.214098 
170 1 0.271252 0.425169 0.00291599 0.430617 -3.25758 -0.403422 -0.350144 -0.253374 
175 1 0.383118 0.367506 0.0529623 0.69909 -3.29688 -0.114526 0.0909118 -0.760887 
179 1 0.443456 0.405645 0.0557395 2.53977 -3.22774 1.24067 -0.5879 -0.882169 
180 1 0.40115 0.451188 0.0460669 2.36185 -3.18889 -1.16461 0.0597281 0.726237 
177 1 0.38807 0.410862 -0.000218253 0.683938 -3.37387 -0.18909 -0.299941 0.0140231 
183 1 0.567844 0.388949 0.0503961 0.941554 -3.32078 -1.0092 -0.0168006 0.236438 
184 1 0.514365 0.439708 0.0492097 0.664419 -3.33574 0.0272844 -0.313676 0.451031 
581 1 0.508711 0.397517 0.102948 0.609626 -3.28376 -0.886393 -0.269317 -0.459153 
185 1 0.615126 0.382548 -0.000245879 0.440452 -3.26747 0.0621559 0.0552163 -0.0858242 
187 1 0.629179 0.422332 0.0498318 1.04642 -3.27708 -0.305791 0.953961 -0.0260544 
152 1 0.680043 0.379685 0.0473573 1.76071 -3.24319 -0.461889 -0.907574 0.113961 
550 1 0.686361 0.417607 0.0970941 0.588501 -3.2759 0.0764574 0.175214 0.364241 
156 1 0.748149 0.407991 0.0473597 1.44149 -3.29069 -0.134645 0.318416 0.24788 
189 1 0.68115 0.417056 -0.00178526 0.423375 -3.30791 0.100063 0.192011 -0.0700191 
191 1 0.693194 0.459465 0.0478675 0.377792 -3.35627 -0.11954 -0.0630036 0.223174 
160 1 0.852692 0.397773 0.0523665 2.72711 -3.28751 0.240582 -0.707435 -0.489162 
195 1 0.8105 0.445903 0.0467647 1.1659 -3.29372 -0.605358 -0.044244 -0.0341082 
197 1 0.869889 0.432753 -0.00113298 1.27566 -3.33701 -0.192529 0.512681 -0.0919089 
154 1 0.800672 0.402243 -0.000886979 0.413731 -3.31191 0.291227 -0.426933 -0.213861 
193 1 0.749928 0.448504 -0.00152466 0.648791 -3.33899 0.120731 0.579512 0.121254 
124 1 0.976013 0.372869 0.0509561 1.80504 -3.23671 -0.0802381 1.07441 -0.273125 
199 1 0.922758 0.425492 0.0524258 0.912614 -3.29169 0.599169 0.23224 -0.600741 
561 1 0.98414 0.417973 0.100119 0.369093 -3.37902 0.127591 0.230031 0.00776945 
161 1 0.98256 0.420866 -0.00160959 0.279986 -3.35813 -0.17172 -0.120395 -0.0332671 
203 1 0.0608085 0.49515 0.0509965 1.91802 -3.35885 -0.518618 0.254747 -0.298604 
602 1 0.0684716 0.539703 0.0967404 1.54947 -3.30173 -0.965353 -0.298572 0.621976 
208 1 0.121049 0.535023 0.0507294 0.867044 -3.25706 -0.179327 -0.312391 -0.69302 
204 1 0.00153626 0.545219 0.0487703 0.744195 -3.32351 0.596818 -0.0127537 0.0246873 
162 1 0.0448255 0.457799 -0.00181094 0.68001 -3.27214 -0.0319351 -0.456791 0.101973 
207 1 0.165748 0.482843 0.0467118 0.655257 -3.38531 -0.145107 -0.0545089 -0.0502892 
212 1 0.234188 0.517119 0.0486901 0.756391 -3.29702 -0.39556 0.118577 0.277024 
209 1 0.222448 0.475573 -0.00132468 0.478328 -3.30733 0.140547 -0.049316 0.501843 
211 1 0.278948 0.469938 0.0529443 1.44 -3.29744 -0.15694 -0.400076 -0.158429 
215 1 0.347759 0.502612 0.0491378 0.600275 -3.32813 0.0103124 0.00506904 0.103039 
613 1 0.343833 0.456704 0.0970031 1.46459 -3.35901 -0.165889 0.21057 0.263346 
219 1 0.452528 0.491312 0.0478416 2.79667 -3.27609 0.689347 0.299155 0.301729 
621 1 0.466794 0.532584 0.099713 0.627128 -3.35724 -0.06761 -0.0193043 -0.0383488 
220 1 0.409423 0.542636 0.0463421 1.11915 -3.26641 0.385213 -0.394232 0.430975 
617 1 0.402024 0.49695 0.100814 0.678696 -3.30515 0.197648 -0.0247458 -0.122034 
188 1 0.582716 0.47727 0.0492632 2.00024 -3.23991 -0.804828 -0.83001 0.284175 
582 1 0.518761 0.480737 0.0957946 1.57403 -3.25518 0.236582 0.265123 0.182455 
223 1 0.523361 0.523157 0.0508631 0.71343 -3.34543 0.0462085 0.479077 0.0129276 
586 1 0.581839 0.515758 0.100688 0.993666 -3.31196 0.550627 0.469914 -0.359869 
192 1 0.641703 0.511536 0.0470894 0.586866 -3.24082 0.530679 -0.0400595 0.304634 
231 1 0.708385 0.544465 0.0466555 0.324441 -3.30098 0.07964 0.163824 0.266173 
589 1 0.630849 0.464289 0.100618 1.03479 -3.32795 0.630334 0.249615 -0.0809791 
590 1 0.697952 0.502531 0.0987848 0.476468 -3.35965 0.095295 -0.0671131 -0.206355 
186 1 0.633624 0.46872 0.000213423 0.505921 -3.32208 0.422983 -0.203857 -0.370678 
196 1 0.7561 0.496408 0.0501113 1.1408 -3.29553 0.424376 -0.547102 -0.07227 
194 1 0.817502 0.487452 -0.00197568 0.608535 -3.36927 -0.0596102 -0.333656 0.26863 
235 1 0.822976 0.530637 0.0480635 1.12896 -3.2793 0.411552 -0.601374 -0.126615 
200 1 0.877463 0.474926 0.0488774 0.534899 -3.28387 -0.220921 0.239245 -0.108292 
233 1 0.766601 0.536554 -0.00122044 0.221036 -3.30353 -0.0699931 -0.0572918 -0.301012 
164 1 0.989386 0.461395 0.0494851 0.234414 -3.35318 0.189323 -0.14505 -0.0575124 
239 1 0.939651 0.508784 0.0494435 0.363724 -3.23269 0.185271 0.292829 -0.0800364 
601 1 0.995853 0.5016 0.0955932 1.22723 -3.31304 0.405665 0.533042 0.448938 
237 1 0.885281 0.51856 0.00165129 1.06183 -3.33408 -0.274983 0.029773 -0.654347 
201 1 0.995026 0.504497 -0.00276929 0.380661 -3.26701 0.110437 0.193291 0.303948 
198 1 0.93288 0.46895 -0.00143829 0.150721 -3.29183 -0.210682 -0.0851594 -0.107568 
243 1 0.0658896 0.584287 0.0534073 1.41934 -3.25694 0.759147 -0.374353 -0.658168 
641 1 0.0114013 0.586898 0.0966179 1.0923 -3.28227 -0.121908 0.35518 0.846137 
244 1 0.0213156 0.631786 0.0511996 0.543682 -3.27323 -0.48037 0.266565 -0.392435 
242 1 0.0788918 0.624558 0.0023235 0.436474 -3.33045 0.129858 0.259365 -0.282207 
248 1 0.135532 0.618716 0.0512595 0.114498 -3.37844 0.0916741 0.202979 -0.100061 
247 1 0.184488 0.570358 0.0551301 1.30637 -3.25746 -0.179249 -0.405845 -0.655049 
251 1 0.246373 0.604259 0.0521253 0.581806 -3.2498 0.502282 -0.0973805 -0.0435443 
249 1 0.194128 0.610112 0.00129251 0.352939 -3.28354 -0.619076 0.0159793 0.165169 
210 1 0.23885 0.560562 -3.23133e-06 0.276052 -3.22454 0.891328 0.350513 0.151157 
216 1 0.297906 0.55044 0.0514473 0.846837 -3.31344 0.185311 0.436311 -0.262444 
255 1 0.358664 0.592321 0.0457559 1.33034 -3.292 0.149467 -0.0945324 0.2355 
653 1 0.308727 0.594213 0.0972438 1.81722 -3.34974 -0.411385 0.291509 0.325014 
657 1 0.37149 0.633797 0.099887 0.559489 -3.31216 -0.380298 -0.256666 -0.374863 
259 1 0.426196 0.623448 0.0467083 0.647056 -3.32134 0.301219 0.269982 -0.000404803 
224 1 0.477644 0.576766 0.0478162 0.539263 -3.31741 0.157261 -0.382938 0.0333928 
261 1 0.491097 0.616573 0.00135758 1.13146 -3.30039 -0.77336 0.00278805 -0.166652 
257 1 0.41963 0.581249 -0.0037425 0.599347 -3.31843 0.222904 0.538465 0.106087 
227 1 0.590146 0.558177 0.0494851 0.451668 -3.34552 -0.304922 0.440365 -0.250053 
228 1 0.545355 0.611003 0.052043 0.59656 -3.33612 -0.0587944 -0.24603 -0.291799 
625 1 0.530004 0.568894 0.100771 0.95554 -3.33908 0.473008 -0.187406 -0.270335 
226 1 0.599098 0.601526 -0.00505557 0.889187 -3.34663 0.377104 0.0169993 0.867316 
629 1 0.647933 0.554388 0.0933616 1.91386 -3.32461 0.450176 -0.457483 0.751215 
232 1 0.660673 0.595044 0.0496172 0.514869 -3.30743 -0.213235 -0.151395 -0.613138 
271 1 0.72502 0.628421 0.0473937 0.227001 -3.3195 0.00684543 0.132832 -0.236663 
630 1 0.72195 0.585638 0.098772 0.90083 -3.30462 -0.794532 -0.309736 -0.209242 
230 1 0.716931 0.587699 -0.00517103 0.74973 -3.31157 -0.321939 -0.494284 0.456492 
229 1 0.651023 0.552998 -0.000141119 0.341719 -3.36683 -0.203821 -0.0837937 -0.360531 
269 1 0.664638 0.639866 -0.00269562 0.957623 -3.37063 0.0937606 -0.361849 -0.0351887 
236 1 0.775589 0.577539 0.0478855 0.145192 -3.30293 -0.227157 0.165085 -0.0663955 
275 1 0.838302 0.612963 0.0483963 0.58146 -3.3532 0.481595 -0.136657 -0.342222 
634 1 0.835396 0.567295 0.0995098 1.31362 -3.22902 0.199524 0.46866 -0.604071 
673 1 0.78232 0.620376 0.0948224 0.576121 -3.28259 0.210477 0.356312 0.435858 
240 1 0.892422 0.561176 0.0471885 0.372867 -3.31511 -0.149003 0.243755 0.0897167 
279 1 0.954696 0.596717 0.0492056 0.28301 -3.36954 0.06805 0.0126543 -0.0783123 
277 1 0.897708 0.603059 -0.00476003 0.632125 -3.30548 -0.00193189 -0.0214394 0.637262 
283 1 0.0831436 0.668687 0.0479268 0.604882 -3.30857 0.0485341 -0.2571 0.107334 
284 1 0.0357335 0.716575 0.0509243 0.444324 -3.3555 -0.235475 0.0616062 -0.158886 
681 1 0.0311867 0.672692 0.100354 1.09965 -3.27455 -0.642197 0.719009 0.0982814 
285 1 0.0927218 0.710816 0.00235348 0.385667 -3.29001 -0.356904 -0.192319 -0.254404 
685 1 0.142389 0.662644 0.101813 0.432418 -3.30977 -0.164466 -0.13164 -0.528121 
252 1 0.205887 0.654975 0.0529062 1.47722 -3.30694 -0.871946 -0.267148 -0.11197 
287 1 0.146192 0.702085 0.0525874 1.08612 -3.2882 0.359861 0.375964 -0.241224 
689 1 0.20702 0.698698 0.096004 0.965652 -3.33781 0.243241 0.188333 0.751972 
246 1 0.142984 0.661378 -0.00088755 0.425757 -3.37531 0.226891 -0.297784 0.308866 
289 1 0.204506 0.698949 0.00416529 0.991314 -3.31736 0.039415 -0.479358 -0.210249 
250 1 0.253506 0.646762 0.000723185 0.252483 -3.30271 0.514754 0.463954 -0.134896 
256 1 0.307019 0.641644 0.0538367 2.07097 -3.30225 0.841595 -0.0699861 -0.61893 
650 1 0.260884 0.650482 0.103313 1.56976 -3.24819 -0.587602 -0.404644 0.0451051 
291 1 0.265881 0.690771 0.0498349 0.485476 -3.26495 0.0534567 0.240347 0.000214677 
654 1 0.323815 0.686398 0.0994735 0.960488 -3.30197 -0.178924 -0.551349 -0.252406 
295 1 0.328435 0.726761 0.0494522 0.351527 -3.30263 -0.0369394 -0.16808 0.155264 
693 1 0.273046 0.736603 0.0978669 0.620437 -3.35145 -0.579437 -0.44063 0.362947 
260 1 0.382992 0.67322 0.0453183 2.08702 -3.3396 -0.692301 0.0400353 0.5261 
264 1 0.445079 0.710152 0.0516911 0.995959 -3.2771 -0.0541808 -0.477168 -0.409993 
263 1 0.497002 0.659403 0.0541743 1.21917 -3.33087 -0.61352 -0.353667 -0.710175 
661 1 0.434899 0.666485 0.0989199 0.580426 -3.30266 0.584542 -0.106144 0.147415 
258 1 0.438207 0.663548 -0.000630106 1.02413 -3.29461 -0.140274 -0.0197062 0.00298628 
262 1 0.500942 0.700473 0.00120393 0.401633 -3.27538 0.271185 -0.322753 -0.115548 
267 1 0.612816 0.643215 0.0510619 1.06075 -3.29814 -0.317144 0.197479 -0.641742 
268 1 0.560599 0.692443 0.0471455 0.356847 -3.27941 0.374756 -0.0716711 -0.0874535 
266 1 0.618649 0.688139 -0.00456987 0.517367 -3.31256 -0.275684 -0.549068 0.186329 
265 1 0.551581 0.65147 -0.001413 0.135897 -3.3538 0.380368 0.307115 0.125926 
272 1 0.675999 0.680944 0.047623 0.541815 -3.2749 -0.317171 -0.675222 -0.184032 
270 1 0.734949 0.671357 -0.00358479 0.481837 -3.3169 -0.536175 -0.315709 -0.397086 
311 1 0.739069 0.711564 0.0475385 0.725709 -3.26175 0.587622 0.585204 -0.294607 
670 1 0.735241 0.669118 0.0955027 0.931068 -3.37884 -0.157476 0.154885 0.300518 
709 1 0.685338 0.722731 0.0953736 0.271361 -3.25059 -0.211322 -0.524745 0.120085 
309 1 0.685059 0.719099 -0.00543651 0.743577 -3.30314 -0.0849087 0.225607 0.218953 
276 1 0.789858 0.66497 0.0412602 1.41856 -3.23858 -0.0572145 -0.625278 0.684679 
315 1 0.853476 0.696263 0.0443359 0.748457 -3.26671 0.603112 0.151439 0.135753 
313 1 0.797626 0.706988 -0.00241219 0.530202 -3.26739 0.00321198 0.0630911 -0.176964 
274 1 0.849297 0.651107 -0.00361921 0.889653 -3.33264 -0.257986 0.315939 0.230687 
280 1 0.907131 0.647946 0.046789 0.503861 -3.31046 -0.387181 -0.369117 0.0109216 
319 1 0.967738 0.681763 0.055891 2.18098 -3.28405 0.633338 0.455977 -0.81207 
288 1 0.100219 0.755281 0.0468879 0.491818 -3.29464 -0.0488423 0.119643 0.321291 
323 1 0.0485693 0.80587 0.0450755 0.777645 -3.31194 0.281846 -0.183048 0.582216 
721 1 0.0475394 0.761491 0.0941067 1.81317 -3.30605 -0.499143 -0.0377583 0.659839 
325 1 0.107066 0.800476 -0.00132839 0.545381 -3.32467 -0.520696 -0.430201 0.145864 
292 1 0.212284 0.741294 0.0509127 0.205535 -3.31383 -0.0869483 -0.00231559 0.0986393 
327 1 0.16634 0.793007 0.0502984 0.558969 -3.33488 -0.517977 -0.0269572 0.0979393 
690 1 0.218759 0.786795 0.102013 0.89024 -3.25536 -0.0711484 -0.348833 -0.404854 
329 1 0.216079 0.783488 0.00230031 0.711708 -3.30675 0.439158 0.168241 -0.272993 
286 1 0.154654 0.745853 0.0026815 0.381021 -3.26503 0.378412 0.276915 -0.290646 
296 1 0.275454 0.777084 0.0495424 0.582247 -3.29594 -0.0212682 -0.238504 -0.0315629 
300 1 0.34334 0.807465 0.0459628 1.08741 -3.25529 0.23756 0.690147 0.824451 
290 1 0.269638 0.732288 0.00243457 0.46523 -3.31783 0.302847 0.234834 -0.13092 
333 1 0.287301 0.816609 -0.000111526 0.579488 -3.2973 -0.600596 0.388049 -0.15414 
299 1 0.391129 0.761084 0.0506223 1.33626 -3.2341 0.00254262 -0.715076 -0.157841 
304 1 0.457962 0.787466 0.0521917 1.50848 -3.2383 0.766128 0.417898 -0.411431 
701 1 0.451308 0.746395 0.0989995 1.07232 -3.21824 0.66452 0.796897 0.183755 
301 1 0.451751 0.74489 0.000764886 1.74082 -3.25957 0.594888 1.12193 0.0649618 
303 1 0.515829 0.740256 0.0479483 1.39512 -3.29769 -0.529403 0.386504 -0.120668 
308 1 0.576373 0.777285 0.0430225 1.01653 -3.29915 -0.242124 0.122198 1.0041 
702 1 0.513737 0.783676 0.0969034 0.879321 -3.34679 0.788308 0.302646 0.226017 
307 1 0.625696 0.728072 0.0478687 0.387432 -3.3066 -0.304144 0.0839853 -0.307175 
312 1 0.690515 0.760837 0.0443931 0.443501 -3.30389 0.201095 0.381805 -0.00415207 
306 1 0.629346 0.77001 -0.00304039 0.485549 -3.29477 0.495797 -0.0142049 -0.393281 
347 1 0.643934 0.812501 0.0463548 0.439108 -3.31457 -0.326256 -0.00844211 -0.0151891 
706 1 0.637031 0.771927 0.0929927 0.635871 -3.32274 -0.692163 -0.0728186 0.299476 
310 1 0.7457 0.757384 -0.00176544 1.11384 -3.31603 0.615762 -0.444649 -0.205282 
349 1 0.697069 0.802281 -0.0073289 1.59258 -3.28191 -0.339246 0.475934 0.488601 
351 1 0.76053 0.79864 0.0441931 1.28023 -3.24606 -0.679523 -0.876445 0.276961 
316 1 0.809866 0.747172 0.0446516 0.993803 -3.35052 -0.567257 0.140177 -0.000379243 
314 1 0.868092 0.739072 -0.00192707 1.13364 -3.26164 -0.552074 -0.0888627 -0.164672 
355 1 0.870542 0.78273 0.0469963 0.508531 -3.2873 -0.131513 0.292182 -0.253269 
714 1 0.860042 0.744867 0.0978199 1.36022 -3.25928 0.144648 -0.579948 -0.128197 
353 1 0.812708 0.79036 -0.00761697 1.38949 -3.30174 0.247196 0.0529903 0.770278 
320 1 0.91641 0.732529 0.0501648 0.730374 -3.32536 0.446608 0.107147 -0.00770019 
359 1 0.987637 0.766284 0.0489116 0.441914 -3.33461 -0.26135 0.0754368 0.045401 
360 1 0.935863 0.81545 0.048606 0.639269 -3.33467 0.313547 0.299402 -0.376526 
321 1 0.997129 0.807223 -0.00339614 1.75996 -3.2826 -0.735573 0.778186 0.178054 
328 1 0.112096 0.841984 0.0473845 0.423799 -3.33788 0.160503 -0.165917 0.367201 
363 1 0.0666243 0.889641 0.0505379 1.03033 -3.37152 -0.325974 0.303692 0.0648068 
761 1 0.00506712 0.898324 0.0977443 0.444494 -3.32627 0.378299 -0.228788 0.476822 
726 1 0.120336 0.884534 0.1029 1.14913 -3.30937 0.298538 -0.0771827 -0.735258 
365 1 0.119858 0.883468 -0.00272254 0.277029 -3.278 0.0700247 -0.0404752 0.285059 
322 1 0.0529338 0.85187 -0.000433485 1.74661 -3.27709 0.159222 -0.725678 -0.27901 
361 1 0.00631576 0.897383 -0.00232408 0.372114 -3.23999 -0.224475 -0.365114 0.193417 
331 1 0.232357 0.827181 0.0533259 1.19784 -3.27676 -0.826466 -0.35353 -0.811132 
332 1 0.177764 0.877534 0.0491301 0.396744 -3.33638 -0.212559 -0.280889 -0.227511 
729 1 0.169154 0.836365 0.0988828 0.957853 -3.3501 0.0586148 -0.203791 0.0224476 
330 1 0.242678 0.867515 -0.00111219 1.43752 -3.35255 -0.938556 -0.164768 0.330578 
336 1 0.245427 0.908281 0.0512439 0.427584 -3.27923 -0.127822 0.173206 -0.402457 
335 1 0.294669 0.858778 0.052073 0.40183 -3.22362 0.349533 -0.146559 -0.60055 
340 1 0.359955 0.891128 0.0504839 0.342301 -3.27881 0.185272 0.0964391 -0.0103749 
337 1 0.356004 0.849302 0.000694366 0.616011 -3.30753 -0.177434 -0.000814838 0.0106233 
339 1 0.412691 0.837558 0.0497594 1.0987 -3.36472 -0.109824 0.463053 0.0909582 
344 1 0.475105 0.877802 0.0512673 0.57953 -3.29729 -0.187813 -0.409385 -0.407994 
341 1 0.466365 0.834751 -0.00145722 0.646905 -3.30855 0.0586715 0.246843 0.322393 
343 1 0.523835 0.829793 0.0465249 0.957218 -3.34166 -0.245389 -0.53204 0.180893 
348 1 0.591133 0.860086 0.0490679 0.688573 -3.28944 0.0358206 0.414662 -0.0138122 
342 1 0.531766 0.872208 -0.00177993 0.875191 -3.3213 0.28406 -0.480109 0.193872 
352 1 0.706926 0.846583 0.0493581 0.439314 -3.28398 -0.404982 0.251602 -0.1184 
387 1 0.652144 0.897413 0.0485245 0.381731 -3.30821 0.52365 -0.136274 0.350397 
746 1 0.647306 0.857473 0.10011 0.496837 -3.3194 -0.135348 -0.256299 -0.182423 
356 1 0.816129 0.835752 0.0496903 1.29681 -3.23361 0.784081 0.251747 -0.666746 
391 1 0.768472 0.881179 0.0525969 0.972814 -3.30975 0.161732 0.775733 -0.441725 
350 1 0.758641 0.837183 0.000118488 1.80082 -3.25233 0.738475 0.77194 -0.677576 
750 1 0.763421 0.841215 0.0991649 0.396068 -3.27362 -0.34584 -0.277387 0.646648 
793 1 0.826112 0.87531 0.099478 0.489992 -3.31293 0.336195 0.343933 -0.00253407 
393 1 0.823027 0.879375 -0.00376331 1.98099 -3.38582 -0.0510212 -0.632571 0.461799 
324 1 0.99944 0.853546 0.049293 0.2394 -3.33269 -0.195645 -0.0922428 0.0467251 
395 1 0.891195 0.870758 0.0518495 2.16879 -3.28378 -0.956444 -0.587682 -0.50798 
797 1 0.941302 0.859024 0.101845 1.2951 -3.28934 0.40874 0.14691 -0.353355 
399 1 0.955444 0.901325 0.0497405 1.55464 -3.20686 -0.471062 0.387624 -0.260756 
358 1 0.942879 0.859519 -0.00232462 0.490589 -3.33698 0.36241 -0.168691 0.228382 
368 1 0.0801383 0.975186 0.0512577 0.7278 -3.31627 -0.664887 0.172131 -0.0179291 
364 1 0.0108289 0.942441 0.0508769 0.675874 -3.31066 0.302209 -0.0296229 0.143115 
362 1 0.0664484 0.932577 -4.65852e-05 0.431649 -3.27918 0.0250778 0.100996 0.447416 
1 1 0.0185785 0.983386 0.00289791 0.694437 -3.33108 0.295192 -0.133028 0.0670565 
367 1 0.130726 0.92645 0.0504817 0.531967 -3.31623 -0.50636 -0.448606 -0.301139 
730 1 0.18877 0.919226 0.0975219 0.683796 -3.32695 -0.152424 -0.475952 0.483714 
371 1 0.195813 0.958984 0.0502151 0.278873 -3.26999 0.0282956 0.0472975 -0.131664 
769 1 0.138752 0.96659 0.0966275 0.635635 -3.3049 -0.145262 0.394171 0.495147 
370 1 0.196088 0.999284 0.00412486 1.10593 -3.32217 0.129186 0.470806 -0.817947 
366 1 0.131827 0.96558 0.0012332 0.45261 -3.30292 0.384233 0.0900409 -0.120629 
369 1 0.185215 0.915794 -0.00332375 0.839952 -3.32193 -0.0460496 0.128637 0.481389 
375 1 0.309644 0.94184 0.0540647 1.70926 -3.27274 0.151256 0.00957507 -0.538043 
376 1 0.257629 0.995492 0.0448097 1.71518 -3.28074 0.391494 -0.391434 0.756173 