ITEM: TIMESTEP
17000
ITEM: NUMBER OF ATOMS
4000
ITEM: BOX BOUNDS pp pp pp
3.3801878365969933e+00 3.7119812163402436e+01
-3.7077018297581827e+00 4.4207701829757198e+01
-3.9693016179434026e-01 4.0896930161794899e+01
ITEM: ATOMS id type xs ys zs c_csym c_peratom fx fy fz 
405 1 0.0341569 0.0611109 0.100999 0.793454 -3.24965 -0.277201 0.70988 0.210178 
7 1 0.0927271 0.0541579 0.048759 0.99066 -3.31454 0.141129 -0.0889296 0.378422 
3 1 0.0279559 0.0207004 0.0502204 0.465235 -3.24989 0.418007 0.413904 -0.0994802 
766 1 0.0804316 0.0170568 0.104754 1.35386 -3.25154 0.343185 -0.762743 -0.229645 
11 1 0.194253 0.0398458 0.049934 2.06725 -3.28602 0.809102 0.560037 0.403529 
409 1 0.145067 0.0475125 0.105034 0.603003 -3.30443 0.264338 0.28459 -0.342687 
410 1 0.207524 0.0829877 0.102979 0.537723 -3.35546 0.0987384 0.0948412 -0.0375029 
372 1 0.139099 0.00231952 0.0515892 0.94623 -3.26664 -0.218656 0.305596 -0.16119 
770 1 0.19457 0.999445 0.100699 0.375863 -3.26928 0.510023 -0.0508239 -0.0241882 
16 1 0.262936 0.0805049 0.0516417 0.918049 -3.28962 0.258289 -0.632637 0.384954 
15 1 0.317186 0.0300187 0.050144 0.666562 -3.29371 -0.635376 -0.462892 0.274499 
413 1 0.257129 0.0359929 0.0995288 0.528584 -3.36769 0.159842 -0.024169 -0.0359425 
414 1 0.326173 0.070594 0.0996142 0.499052 -3.36891 -0.208592 -0.0167333 0.0110459 
13 1 0.253222 0.0347292 0.00263019 1.7929 -3.31049 0.673772 0.186238 -0.228074 
20 1 0.382059 0.0621171 0.0510672 0.466606 -3.2958 0.0910274 0.458203 0.210856 
19 1 0.433031 0.00984445 0.0518444 0.788411 -3.25642 0.017648 0.829889 0.179341 
418 1 0.436637 0.0539776 0.100651 0.527399 -3.3112 0.291719 0.0552278 -0.20074 
421 1 0.484856 0.00377703 0.100947 1.01466 -3.31711 0.767499 0.298188 0.411394 
417 1 0.371031 0.0203649 0.102332 0.50543 -3.33186 0.275895 0.134922 -0.112088 
24 1 0.500245 0.0461858 0.0536354 0.438759 -3.34979 -0.352949 0.166174 -0.107468 
21 1 0.4896 0.00501536 1.00455 0.525971 -3.28835 0.63148 0.258763 -0.210455 
28 1 0.617228 0.0316174 0.0535203 0.224906 -3.3206 0.0765724 -0.110337 0.0961608 
422 1 0.560366 0.0388493 0.101669 0.442298 -3.3262 -0.516097 -0.133674 0.328668 
465 1 0.629534 0.0722657 0.106111 0.764878 -3.30137 -0.280879 0.372905 -0.641696 
63 1 0.566717 0.0818455 0.0574971 0.651246 -3.31115 0.16345 -0.181994 -0.494 
61 1 0.503917 0.0884244 1.00621 0.806103 -3.33945 0.174768 0.111022 0.18005 
461 1 0.509176 0.0871811 0.103103 0.652412 -3.31287 -0.0563229 0.344914 -0.101701 
32 1 0.734837 0.0114657 0.0537716 0.7788 -3.31227 -0.271339 0.0585059 -0.166725 
67 1 0.684278 0.0632946 0.0544913 0.405146 -3.33643 -0.255469 0.397849 -0.470065 
469 1 0.736422 0.0580697 0.101097 1.24798 -3.29296 0.390645 -0.20681 0.446807 
426 1 0.673047 0.0221859 0.104965 0.4723 -3.31722 -0.0263791 -0.0657299 -0.468713 
30 1 0.742177 0.05465 1.00237 0.899316 -3.23646 -0.0931392 0.718472 0.135355 
26 1 0.678571 0.0231819 0.00435662 0.559481 -3.29319 -0.703986 -0.200232 0.227755 
36 1 0.792284 0.0494569 0.0528445 1.2726 -3.24972 0.801757 -0.1471 -0.154245 
35 1 0.84586 0.00113101 0.0546745 0.666341 -3.31433 0.245669 -0.283803 -0.372032 
434 1 0.858615 0.0406727 0.0999261 0.767094 -3.35485 -0.348503 0.293961 0.546992 
430 1 0.791789 0.00742812 0.101539 0.492229 -3.32125 -0.0949371 -0.210522 0.167626 
33 1 0.792589 0.00732263 1.00177 0.533405 -3.36744 -0.0226997 -0.0564355 -0.0596567 
4 1 0.975268 0.0719236 0.0503393 0.598379 -3.31741 0.112987 0.0722312 0.240648 
40 1 0.915345 0.0349709 0.0534909 0.526762 -3.28979 -0.415004 -0.0773284 0.013825 
401 1 0.973292 0.0273779 0.103508 0.671731 -3.24393 -0.357524 0.286971 -0.143056 
438 1 0.921513 0.07555 0.102972 0.667589 -3.31261 -0.382934 0.0760242 -0.243448 
8 1 0.0424262 0.101013 0.0547477 1.96488 -3.29415 -0.129449 0.432022 -0.476214 
47 1 0.101643 0.139912 0.0480581 1.19075 -3.29139 0.0118957 -0.321291 0.222325 
406 1 0.09591 0.0972073 0.104379 0.557019 -3.33219 0.386864 0.175801 -0.0595488 
445 1 0.0480083 0.146428 0.09824 0.928656 -3.27835 -0.229125 -0.306952 0.72421 
45 1 0.0454652 0.148952 0.998656 1.5342 -3.2249 -0.401155 -0.496426 0.343325 
12 1 0.154787 0.0941402 0.0527533 1.29699 -3.35929 -0.271064 -0.320539 0.0128108 
52 1 0.169066 0.169709 0.0510425 2.30055 -3.31519 -0.0873444 0.742495 -0.146394 
51 1 0.219802 0.127004 0.0516437 0.270945 -3.2907 -0.011516 0.0590197 0.147396 
449 1 0.161651 0.133529 0.103488 0.496127 -3.32667 -0.12306 -0.237207 -0.163526 
450 1 0.222684 0.172042 0.101761 0.708564 -3.35817 -0.0201654 -0.350487 0.11763 
55 1 0.329701 0.115302 0.0508878 0.599023 -3.31539 -0.117948 -0.574961 0.251989 
56 1 0.281466 0.164145 0.051368 0.28722 -3.34352 0.101894 -0.0322401 0.299117 
453 1 0.274079 0.119751 0.103156 0.374044 -3.28882 -0.31107 0.0485229 -0.511724 
454 1 0.336833 0.153072 0.101725 0.488067 -3.2901 0.0744676 0.65696 0.0668601 
54 1 0.341116 0.155173 0.000770097 0.46353 -3.25711 -0.150528 0.227493 -0.0705831 
59 1 0.44706 0.0997487 0.057211 0.953953 -3.34036 0.426845 -0.262721 -0.778173 
60 1 0.392723 0.147769 0.0557813 1.03623 -3.2528 0.86044 0.344046 -0.56747 
458 1 0.454698 0.142423 0.102097 0.734145 -3.3078 0.451477 0.192178 -0.0968407 
457 1 0.392662 0.106724 0.101724 0.736735 -3.22334 -0.781807 -0.326118 -0.0792086 
99 1 0.462123 0.186022 0.0505595 1.56875 -3.32317 -0.178383 -0.659814 0.362289 
64 1 0.519788 0.133262 0.057223 1.12588 -3.30508 -0.652484 -0.352372 -0.203 
103 1 0.586586 0.164439 0.0534154 0.885629 -3.24937 -0.662707 -0.013664 0.0701283 
462 1 0.579128 0.122822 0.105086 0.718143 -3.33266 -0.538071 -0.178173 0.20346 
501 1 0.52328 0.174283 0.102378 0.405714 -3.2951 -0.280532 0.107625 -0.0863053 
62 1 0.573313 0.11944 1.00661 1.16583 -3.36125 0.0240307 0.0445583 -0.379125 
68 1 0.631438 0.117238 0.0550038 0.704465 -3.2943 0.317082 -0.850128 -0.184116 
72 1 0.694588 0.149494 0.0500764 0.591273 -3.30945 0.39354 -0.197471 0.0741648 
71 1 0.750176 0.0970554 0.0510298 1.17369 -3.31014 -0.515156 0.76785 -0.184235 
505 1 0.640636 0.157217 0.103728 0.238912 -3.26353 -0.258108 -0.216909 0.124822 
466 1 0.693502 0.107783 0.10811 1.37593 -3.26043 -0.888981 -0.30751 -0.46937 
75 1 0.860331 0.0858188 0.051077 0.392419 -3.31681 0.282851 -0.147081 -0.210953 
473 1 0.807203 0.0893017 0.0979033 0.87058 -3.29045 -0.214847 0.24456 0.739463 
76 1 0.815102 0.136993 0.0538033 1.17247 -3.33434 -0.553831 -0.260633 -0.373771 
470 1 0.751884 0.138997 0.100795 1.18229 -3.31797 0.965371 0.591214 -0.010048 
477 1 0.871156 0.125814 0.0993851 0.695857 -3.2619 -0.474077 -0.0909239 0.451896 
80 1 0.878347 0.169992 0.0496546 0.875642 -3.29879 -0.372343 0.448156 -0.0142122 
474 1 0.81735 0.178233 0.103132 0.457145 -3.29936 0.106693 -0.517399 -0.282183 
43 1 0.9935 0.149917 0.0525966 2.65186 -3.30558 -0.400008 0.266477 -0.120401 
79 1 0.924899 0.122247 0.0510295 0.545666 -3.29895 0.157991 -0.394203 0.0461187 
402 1 0.97926 0.112339 0.10588 1.01076 -3.30229 0.67745 0.136771 -0.624419 
441 1 0.926507 0.163804 0.102083 0.881016 -3.30184 0.618529 0.385546 -0.0274536 
446 1 0.111699 0.181224 0.0993437 0.519341 -3.31904 0.141571 0.470435 -0.0215254 
48 1 0.0519417 0.188898 0.0530578 0.599023 -3.27093 -0.0324302 0.0929974 0.0466506 
83 1 -0.00200322 0.242198 0.050586 1.30634 -3.27906 0.355663 -0.115559 0.167463 
485 1 0.060055 0.2334 0.0974177 0.548241 -3.34112 -0.0929441 -0.06036 0.20527 
46 1 0.108704 0.1802 1.00321 0.709075 -3.28608 0.796407 0.618143 -0.258535 
87 1 0.119695 0.223385 0.0485672 0.497829 -3.34406 0.23192 -0.0297253 0.234236 
91 1 0.229351 0.212856 0.0518662 1.21927 -3.29123 0.410458 -0.105578 -0.089082 
92 1 0.184527 0.26418 0.0484362 0.866477 -3.28141 -0.316648 -0.550441 0.190521 
489 1 0.175769 0.222308 0.0968606 0.86399 -3.29418 -0.645475 -0.23024 0.479529 
89 1 0.179987 0.214227 0.00058743 1.29135 -3.36315 -0.50923 0.430793 -0.0899196 
486 1 0.122964 0.270599 0.0939084 0.969707 -3.2972 -0.00614303 -0.2673 0.640113 
490 1 0.240716 0.25619 0.0986456 0.58648 -3.28918 -0.15446 -0.0731469 0.211502 
95 1 0.348207 0.195807 0.0490677 0.634036 -3.31121 -0.246572 0.221752 0.729936 
96 1 0.300331 0.242354 0.0461225 2.56708 -3.25224 -0.379537 0.353506 1.08068 
493 1 0.28688 0.204309 0.104821 1.3733 -3.32403 0.284955 0.109994 -0.659409 
494 1 0.356698 0.2399 0.0991583 0.66324 -3.3283 -0.215334 -0.477858 0.230919 
100 1 0.411867 0.232931 0.0506521 0.537151 -3.27088 0.0631551 -0.367563 0.269864 
139 1 0.478946 0.266361 0.0480921 0.852304 -3.25462 0.467581 -0.400189 0.167429 
497 1 0.403829 0.187935 0.104919 0.948816 -3.3668 0.052186 0.493216 -0.279131 
498 1 0.468702 0.225239 0.0993001 0.800448 -3.36437 0.138496 -0.289417 0.393746 
537 1 0.420325 0.275272 0.105087 1.46352 -3.27832 0.235932 -0.287544 -0.688457 
104 1 0.534075 0.211176 0.0500689 1.67136 -3.2788 -0.0799322 0.557965 0.29361 
108 1 0.598981 0.249609 0.0544265 0.678806 -3.3232 -0.320132 0.0885036 -0.176498 
502 1 0.584074 0.21009 0.103201 1.76145 -3.31773 0.673612 -0.154881 -0.192844 
541 1 0.532393 0.258904 0.0972334 1.71085 -3.34694 0.46 -0.0912996 0.311457 
102 1 0.542697 0.252348 0.00236381 1.4152 -3.36072 -0.0750115 0.704939 -0.155499 
105 1 0.593771 0.206339 1.00131 0.584649 -3.28788 -0.328249 -0.3425 0.00922445 
107 1 0.644653 0.199245 0.0533771 0.400134 -3.2851 0.284355 0.434611 0.0391449 
509 1 0.701376 0.188825 0.0981873 1.39104 -3.25396 0.637981 0.666561 0.361128 
112 1 0.711844 0.235776 0.0543696 0.416416 -3.3411 -0.16439 0.0109376 -0.0408257 
506 1 0.654309 0.244139 0.102667 0.445355 -3.33436 -0.12522 -0.289385 -0.0598709 
115 1 0.822819 0.222546 0.0518696 0.395569 -3.30182 -0.37293 -0.409508 0.0708615 
111 1 0.762658 0.183082 0.0513402 0.804773 -3.35858 -0.105876 0.195983 0.00582447 
517 1 0.829311 0.268805 0.103557 1.56197 -3.31598 -0.150478 -0.616246 -0.0739767 
513 1 0.765573 0.226315 0.103049 0.473459 -3.34853 0.11179 0.254072 -0.108935 
116 1 0.77944 0.27274 0.0515711 1.29769 -3.34432 -0.522504 -0.24111 0.0569325 
442 1 0.994144 0.196913 0.101745 0.511868 -3.33529 -0.324288 0.10547 -0.390094 
44 1 0.935919 0.209569 0.0521902 1.41667 -3.28371 -0.280652 -0.557976 -0.152734 
119 1 0.881896 0.258267 0.0520502 1.00394 -3.34662 0.645777 0.259562 -0.0896222 
478 1 0.878014 0.213081 0.100842 0.52826 -3.2957 0.113097 0.151503 0.0890616 
481 1 0.943308 0.244918 0.104775 1.54291 -3.27178 0.184908 0.61739 -0.389744 
88 1 0.0676631 0.274923 0.0482121 0.640525 -3.27494 -0.310384 0.192359 0.313995 
123 1 0.0124664 0.324096 0.048449 1.0912 -3.26061 1.18117 0.484177 0.143542 
128 1 0.0809691 0.359971 0.0465682 0.690852 -3.35291 -0.201869 0.125772 0.0724644 
482 1 0.00591795 0.279488 0.100732 1.59647 -3.33074 0.241242 0.540093 -0.114616 
525 1 0.0767359 0.320702 0.10132 1.64615 -3.28541 -0.975986 -0.396684 -0.625068 
125 1 0.0733005 0.316348 0.996882 0.92803 -3.27758 0.634766 0.334037 0.195045 
127 1 0.129733 0.313115 0.0480471 0.678171 -3.26408 -0.00563032 -0.492155 0.077147 
132 1 0.196131 0.345813 0.0488486 0.187408 -3.31236 0.311056 -0.0165478 0.173553 
526 1 0.139079 0.353009 0.0967329 0.647377 -3.27659 0.252303 0.727599 0.323476 
529 1 0.185506 0.305337 0.0990047 0.640587 -3.31524 0.394455 0.219367 0.200166 
131 1 0.245824 0.298292 0.0555647 1.95205 -3.27914 0.247327 0.0824991 -0.448817 
129 1 0.189741 0.299198 0.997673 1.23554 -3.33392 0.319444 0.737356 -0.0473992 
126 1 0.140745 0.348521 -1.21918e-05 0.976533 -3.33191 0.0663833 0.516991 -0.724589 
136 1 0.311026 0.330704 0.0517245 0.426118 -3.33252 0.398152 0.207591 0.243816 
533 1 0.306789 0.287622 0.0994513 0.662976 -3.30135 -0.0365775 0.511673 -0.0449037 
130 1 0.25555 0.336448 0.00306213 0.918866 -3.32614 -0.0722495 -0.0478719 -0.60262 
135 1 0.361817 0.277528 0.0497082 0.87478 -3.27611 0.301849 0.681848 0.116329 
530 1 0.25578 0.344442 0.101912 1.53684 -3.32448 -0.375696 -0.720475 -0.23209 
133 1 0.303693 0.289275 0.00399662 1.11892 -3.27549 -0.12886 -0.196855 -0.588404 
134 1 0.366686 0.320498 1.00241 1.50707 -3.33149 0.737078 0.206063 -0.340097 
534 1 0.372247 0.322116 0.101016 0.204515 -3.33026 -0.312657 0.219439 -0.273471 
140 1 0.431165 0.310195 0.0481312 1.45037 -3.31076 -0.619457 0.42631 0.1265 
538 1 0.487492 0.308297 0.0990021 0.537204 -3.32227 -0.0697233 -0.000989644 0.157946 
577 1 0.432505 0.357946 0.101382 1.19944 -3.30675 0.509445 -0.0704507 -0.056768 
144 1 0.491747 0.346629 0.0512773 1.00281 -3.34911 0.431364 0.650902 -0.176529 
137 1 0.422364 0.268418 0.0016553 1.66277 -3.29541 0.0233004 0.63705 -0.803002 
143 1 0.54876 0.300155 0.0504686 0.436814 -3.33212 -0.336026 -0.131826 -0.193888 
545 1 0.602257 0.2951 0.0990877 0.503253 -3.32431 0.00964873 -0.30019 0.14193 
148 1 0.61253 0.337114 0.0511288 0.439786 -3.26444 -0.506516 -0.539262 -0.0145621 
542 1 0.55223 0.345286 0.0987155 1.02769 -3.36283 -0.157659 -0.426404 0.0957798 
145 1 0.606599 0.292741 0.00321484 0.558078 -3.3422 -0.259149 -0.323284 -0.346749 
142 1 0.555076 0.33972 1.00038 1.09631 -3.34294 -0.260253 0.456963 0.110516 
147 1 0.661941 0.2886 0.0521063 0.670016 -3.33242 -0.0824137 -0.478098 0.219872 
151 1 0.727359 0.321595 0.051334 0.439565 -3.29496 -0.291109 -0.135862 0.0303118 
549 1 0.673618 0.326214 0.102152 1.47979 -3.28555 -0.595159 -0.07801 -0.111172 
510 1 0.720517 0.277106 0.105047 0.582282 -3.35815 0.11458 -0.0861243 -0.204973 
120 1 0.838754 0.309734 0.0519797 0.686976 -3.30066 0.0153851 0.0393859 -0.462801 
155 1 0.787576 0.357196 0.0493119 0.413919 -3.28237 0.29583 0.112433 0.375961 
157 1 0.842857 0.352243 -0.000420858 0.544738 -3.32872 0.308041 -0.376493 0.186814 
514 1 0.780142 0.315806 0.100949 0.748039 -3.31831 -0.0472974 -0.0177915 0.259193 
557 1 0.846295 0.348385 0.101723 0.23277 -3.30212 0.0778296 0.0639805 -0.118553 
84 1 0.952203 0.291394 0.0468025 0.969369 -3.26604 -0.67376 -0.572933 0.201965 
159 1 0.906116 0.341844 0.0529679 1.16065 -3.22628 -0.825277 -0.0524459 -0.328844 
518 1 0.895896 0.301115 0.100348 0.576282 -3.31666 -0.0475889 -0.537569 0.198394 
521 1 0.962334 0.330299 0.0988392 1.65837 -3.21367 -0.243901 0.487242 0.131872 
522 1 0.0239552 0.371139 0.0953414 1.09493 -3.29609 -0.234216 -0.567315 0.347032 
163 1 0.0311129 0.414615 0.0506739 0.906796 -3.26906 0.138542 -0.274159 -0.14834 
168 1 0.0993882 0.448085 0.0456759 0.821665 -3.28275 -0.293274 -0.325188 0.66415 
565 1 0.0874685 0.403968 0.0954164 0.538547 -3.32114 0.582029 0.296231 0.110735 
167 1 0.1474 0.394255 0.0479843 0.313455 -3.28828 -0.0572954 -0.00113894 0.15763 
172 1 0.211049 0.427093 0.0483743 0.829604 -3.28271 0.45431 0.544469 0.0980774 
569 1 0.202543 0.390253 0.0999119 0.485215 -3.36552 -0.0484531 -0.364739 0.108155 
566 1 0.156144 0.438573 0.100349 0.447023 -3.34259 -0.209995 0.0202149 -0.171268 
166 1 0.160535 0.437542 0.999424 0.736249 -3.28095 -0.0315383 0.0612159 -0.266688 
171 1 0.261792 0.380835 0.0462854 0.808029 -3.26282 0.130942 -0.225447 0.646053 
176 1 0.32775 0.410939 0.0477351 1.08965 -3.31928 0.211318 0.359253 0.191097 
573 1 0.323019 0.372636 0.101287 0.380974 -3.33419 0.0020232 0.0288189 -0.139792 
570 1 0.268881 0.423664 0.0978408 0.750508 -3.30792 0.573564 -0.411462 0.110502 
175 1 0.38407 0.361637 0.0481191 1.60598 -3.30516 -0.660056 -0.0979079 0.306331 
179 1 0.44483 0.39776 0.0529857 0.55203 -3.3365 0.436595 0.287637 -0.270528 
578 1 0.451848 0.441877 0.0987482 0.57158 -3.36915 0.372164 -0.10256 -0.182441 
574 1 0.383809 0.406993 0.0963133 1.52773 -3.29896 0.271422 0.0844783 0.579792 
183 1 0.562719 0.385807 0.0518743 0.38139 -3.28912 -0.393213 -0.575174 0.0821007 
184 1 0.514272 0.432378 0.0495111 0.703504 -3.29289 -0.932276 0.442108 0.496484 
187 1 0.623757 0.421342 0.0530202 0.437654 -3.28314 0.201922 0.323558 0.126651 
581 1 0.502056 0.392683 0.104303 0.82557 -3.29077 -0.0485016 -0.107357 -0.904705 
585 1 0.567297 0.427042 0.101218 0.540561 -3.30304 0.353843 -0.0359386 0.0699628 
546 1 0.620292 0.375588 0.101596 1.18989 -3.30866 -0.272434 0.0805461 0.427606 
553 1 0.728111 0.364764 0.101552 0.698519 -3.33278 0.269039 0.382994 -0.000286891 
152 1 0.669815 0.371344 0.0496859 1.01626 -3.25041 1.04304 0.362228 0.181212 
550 1 0.674693 0.415428 0.10425 1.22687 -3.32091 0.367856 -0.020627 -0.0947615 
156 1 0.735394 0.408958 0.0536385 0.569527 -3.29215 -0.570767 -0.667751 -0.0740802 
593 1 0.742939 0.450897 0.101193 0.490669 -3.32195 -0.0244257 -0.0615992 0.396333 
193 1 0.748868 0.448823 1.00086 0.798469 -3.31673 -0.181811 0.249652 -0.231325 
160 1 0.852665 0.39095 0.0482474 0.566313 -3.33069 -0.132158 -0.00734591 0.280522 
195 1 0.795877 0.440706 0.0524823 1.61226 -3.26731 1.1685 0.632593 -0.00125646 
197 1 0.85483 0.437215 1.00132 1.18133 -3.34388 -0.164698 0.023324 0.0747848 
554 1 0.794729 0.396912 0.0997229 0.373946 -3.36261 -0.0864185 0.289746 0.106558 
597 1 0.859874 0.434291 0.0963364 1.06419 -3.33723 -0.416105 -0.0254136 0.279701 
154 1 0.792005 0.399945 0.999068 0.63076 -3.25913 0.674085 0.268166 0.496244 
124 1 0.965909 0.374213 0.0514475 1.25879 -3.27591 0.216606 0.884832 -0.242716 
199 1 0.914851 0.425813 0.0486998 0.709362 -3.28789 0.349603 0.0549956 0.282891 
561 1 0.971504 0.418224 0.101559 0.762801 -3.30779 0.0611148 0.2255 -0.575967 
558 1 0.907793 0.384711 0.104277 1.024 -3.32578 0.241647 -0.508163 -0.542967 
203 1 0.0458253 0.497859 0.0503142 0.485311 -3.31556 -0.0528035 -0.282045 0.113747 
605 1 0.10604 0.490666 0.0987119 0.42502 -3.34739 0.021914 -0.321456 0.0571223 
602 1 0.0533218 0.537957 0.100944 0.668486 -3.26091 0.303642 0.353787 -0.0783164 
208 1 0.109859 0.531403 0.0478844 1.07376 -3.33222 0.622574 0.276046 0.117317 
562 1 0.0368783 0.45625 0.0999796 0.545604 -3.37105 0.380486 0.0776268 -0.0933079 
202 1 0.0541803 0.543642 0.997706 1.16304 -3.29107 0.555861 0.0108895 0.26289 
205 1 0.103207 0.493319 0.99921 1.58682 -3.31108 0.290682 -0.117026 -0.0544795 
207 1 0.163067 0.477471 0.0487747 1.21196 -3.31838 0.605037 0.726284 -0.196414 
212 1 0.235027 0.513804 0.0475951 0.427079 -3.31227 -0.162543 -0.47676 0.140202 
609 1 0.223937 0.471723 0.0971216 0.308484 -3.29506 -0.201395 -0.099025 0.0457074 
606 1 0.176904 0.519254 0.0944844 1.54264 -3.32505 -0.402775 0.140011 0.49751 
206 1 0.172707 0.527369 1.00005 1.35062 -3.32611 -0.319762 -0.800643 -0.192441 
211 1 0.28158 0.46164 0.0499414 0.637687 -3.37955 0.203426 0.376723 -0.320096 
215 1 0.352239 0.497762 0.0486852 0.575226 -3.30707 -0.66238 0.0294331 0.327957 
613 1 0.342621 0.45818 0.0999334 0.877232 -3.30272 -0.308799 -0.605643 -0.167151 
610 1 0.290381 0.50369 0.100007 0.576385 -3.30615 0.172351 0.387759 -0.503979 
174 1 0.339779 0.458334 0.998021 0.790526 -3.31096 -0.40045 -0.28546 0.180308 
180 1 0.392101 0.447069 0.0498018 0.99952 -3.3027 0.544529 0.193685 -0.168522 
219 1 0.461867 0.4862 0.0483614 0.731291 -3.3678 0.359769 -0.57901 0.105244 
621 1 0.475486 0.527644 0.0991806 1.19572 -3.31938 -0.423086 -0.294426 0.00172528 
220 1 0.415772 0.536316 0.0487955 0.888004 -3.20824 -0.656248 -0.770267 0.265384 
617 1 0.410101 0.492157 0.0983727 0.755737 -3.29728 -0.0974956 -0.0391553 -0.0703537 
188 1 0.57321 0.470455 0.046774 0.927325 -3.27216 0.29033 0.123398 0.372858 
582 1 0.522711 0.475885 0.101507 0.51756 -3.34475 -0.0875385 0.14234 -0.24131 
223 1 0.530805 0.517208 0.0482737 1.69116 -3.31859 -0.392635 0.586631 0.104334 
586 1 0.583082 0.514303 0.100823 0.361162 -3.28464 -0.252109 0.172272 0.171222 
191 1 0.690299 0.459769 0.0514898 0.447904 -3.33518 -0.262723 -0.0376949 0.0953727 
192 1 0.639313 0.507707 0.0476354 0.943337 -3.37306 0.0144657 0.0684892 0.240745 
231 1 0.711767 0.544175 0.0530015 1.87528 -3.32643 -0.780082 -0.11665 -0.259879 
589 1 0.625918 0.468233 0.101802 1.78295 -3.33362 0.490456 -0.587597 -0.111314 
590 1 0.694516 0.503589 0.101183 0.883969 -3.32697 0.0512324 -0.557622 -0.130233 
186 1 0.631344 0.462449 1.00195 0.630183 -3.29836 0.147081 0.511714 -0.199088 
196 1 0.755663 0.494499 0.0525262 0.755374 -3.29018 -0.202097 -0.287287 -0.16943 
194 1 0.807555 0.489389 3.46138e-05 1.42644 -3.30155 -0.0549267 -0.327995 0.28253 
235 1 0.81612 0.530906 0.0470088 1.50407 -3.23124 0.234484 -0.485222 0.336956 
233 1 0.755469 0.541594 0.995901 4.52134 -3.30599 0.556376 -0.464661 0.0970811 
200 1 0.867078 0.478446 0.0529694 0.432622 -3.35404 -0.283974 -0.136934 -0.381178 
594 1 0.809299 0.487223 0.103021 0.771042 -3.29761 -0.117821 -0.739867 -0.416701 
633 1 0.765302 0.534678 0.101865 0.625113 -3.26406 -0.413652 0.340807 0.00678207 
637 1 0.874962 0.519923 0.0991929 0.440325 -3.3034 0.219421 0.158164 0.091486 
201 1 0.996829 0.506371 0.999602 1.04386 -3.34266 -0.93722 -0.346794 -0.0475722 
164 1 0.981546 0.459381 0.048654 0.997175 -3.32783 0.140613 0.564603 0.331211 
198 1 0.925428 0.467917 0.00360643 0.703836 -3.33524 0.0833273 0.550221 -0.485515 
239 1 0.936968 0.512388 0.053912 0.853428 -3.27991 -0.256133 -0.473772 -0.722997 
601 1 0.991398 0.505442 0.105199 0.878453 -3.25893 -0.137846 -0.657891 -0.101228 
598 1 0.924897 0.471338 0.100804 0.619488 -3.32617 0.155523 -0.353966 -0.0731297 
237 1 0.875114 0.520557 0.00506426 1.34829 -3.30945 0.758807 -0.127407 -0.365621 
243 1 0.0675953 0.58278 0.0495359 0.467473 -3.36148 -0.257077 -0.308631 -0.0961063 
642 1 0.0747655 0.62037 0.0994056 0.861999 -3.28812 0.352183 0.367949 -0.0682717 
245 1 0.126675 0.576126 1.00027 0.715633 -3.23523 -0.400247 -0.760146 -0.347795 
641 1 0.0109415 0.589085 0.098713 0.726562 -3.31793 -0.455554 0.151781 0.400518 
244 1 0.0196081 0.634749 0.0499327 0.682626 -3.34095 -0.177477 -0.632079 -0.18814 
241 1 0.00682245 0.592512 0.998985 0.538772 -3.33882 0.470458 -0.101392 0.278086 
248 1 0.139474 0.609526 0.0500433 1.7306 -3.30644 -0.206392 0.673826 0.467795 
645 1 0.123152 0.566991 0.101539 1.81879 -3.28243 0.341646 0.660916 -0.737155 
247 1 0.187589 0.562268 0.0510407 1.29309 -3.28598 -0.54607 0.456712 -0.00483465 
649 1 0.240503 0.556062 0.0978633 0.299817 -3.31441 0.215285 0.169206 0.0440393 
251 1 0.256348 0.599138 0.047449 1.10258 -3.32881 -0.674317 -0.33363 0.365673 
646 1 0.190026 0.607307 0.101334 0.818518 -3.3345 0.432751 -0.524071 -0.359569 
249 1 0.192002 0.605505 0.998648 0.406486 -3.29774 0.641363 0.148019 0.109355 
210 1 0.24048 0.554744 1.00223 1.53866 -3.25217 0.558085 0.749663 -0.63114 
614 1 0.355961 0.538331 0.0985961 0.618146 -3.35495 0.0613205 0.144958 0.159073 
216 1 0.302022 0.545993 0.0467649 0.75138 -3.33393 -0.0822973 0.262726 0.289015 
255 1 0.364838 0.583557 0.0511922 0.3902 -3.31085 0.048062 0.172139 -0.34027 
653 1 0.310285 0.589677 0.0986798 0.625742 -3.31309 -0.382193 -0.0100082 -0.0496736 
259 1 0.432311 0.619206 0.051014 1.46696 -3.32608 -0.578732 0.11576 -0.000520371 
224 1 0.471228 0.569418 0.0478662 1.63696 -3.19973 1.25105 0.549287 0.2537 
618 1 0.41642 0.57599 0.101881 1.05323 -3.33626 0.220144 -0.0441899 0.000909679 
622 1 0.483407 0.611807 0.102206 0.76278 -3.3392 0.220518 0.12377 0.0250043 
227 1 0.592748 0.560618 0.0533624 1.50036 -3.22937 -0.644005 -0.531264 -0.334367 
228 1 0.534473 0.610634 0.0504619 1.89492 -3.36289 0.30222 -0.496827 0.205886 
625 1 0.534689 0.562565 0.0971814 1.0853 -3.31311 0.0147478 0.430188 0.246792 
626 1 0.601411 0.599712 0.101633 0.5395 -3.30108 -0.344671 0.245551 -0.294501 
226 1 0.59456 0.59798 1.00221 1.14164 -3.27613 0.445682 0.4014 -0.186132 
222 1 0.531203 0.564569 1.00263 1.0889 -3.32132 0.265047 -0.214395 0.120998 
629 1 0.646169 0.5501 0.100551 0.422031 -3.25183 0.521673 0.0216722 -0.208425 
232 1 0.656226 0.592681 0.0492827 0.29604 -3.25167 0.0710329 0.29998 0.276535 
230 1 0.714133 0.589809 0.000406134 1.17883 -3.29684 -0.217207 -0.50842 -0.3792 
271 1 0.718147 0.627281 0.0487183 0.630673 -3.29816 0.434682 0.554888 0.0523019 
630 1 0.712115 0.588057 0.100618 1.08276 -3.30529 0.0988354 -0.602535 -0.282025 
669 1 0.664165 0.637563 0.09715 1.06387 -3.31924 -0.118494 -0.243162 0.420608 
236 1 0.774706 0.577213 0.0491224 1.2114 -3.25305 -0.544074 0.669138 0.220407 
234 1 0.828826 0.571837 1.00097 0.75118 -3.32971 0.310592 0.10973 -0.384733 
275 1 0.838951 0.611 0.0495009 0.728697 -3.27993 -0.0420934 -0.128462 -0.210594 
634 1 0.830833 0.568556 0.0992766 0.648575 -3.33592 0.141715 0.507427 0.300726 
673 1 0.775094 0.619778 0.0968026 1.05824 -3.31252 0.7092 0.252895 -0.129581 
273 1 0.780668 0.623643 0.000299546 0.706465 -3.29006 -0.296005 -0.556816 0.0115794 
204 1 -0.00251071 0.547407 0.0526255 0.68682 -3.27482 0.608306 0.199022 -0.850673 
240 1 0.889313 0.562286 0.0506222 0.572769 -3.32713 -0.179665 -0.0276747 -0.134732 
279 1 0.951497 0.597094 0.0513497 0.545329 -3.33982 0.228908 0.464452 -0.417752 
638 1 0.947094 0.551587 0.100579 1.03854 -3.23429 -0.523725 0.620253 0.644604 
677 1 0.900365 0.602784 0.100581 1.08296 -3.33825 -0.4578 0.0962922 0.190767 
238 1 0.942554 0.556471 0.99615 1.07888 -3.35022 0.173487 -0.226191 0.479508 
277 1 0.896453 0.609758 -0.00584541 2.12371 -3.26999 -0.218861 -0.676582 1.04378 
283 1 0.0920749 0.664309 0.0502344 0.507645 -3.30776 -0.427709 -0.168422 0.0361964 
284 1 0.040101 0.716183 0.050236 0.666024 -3.27285 -0.715277 -0.514891 -0.141651 
681 1 0.0313921 0.671596 0.0972419 1.53954 -3.31457 -0.162776 0.197283 0.487481 
682 1 0.0937129 0.709912 0.0970941 1.25574 -3.25016 0.0367033 -0.706876 0.757457 
285 1 0.10437 0.707786 0.000259582 1.87235 -3.26782 -0.693913 -0.427221 -0.24079 
685 1 0.144429 0.654351 0.0996568 0.580075 -3.30356 -0.170572 0.513331 -0.175521 
252 1 0.206297 0.648391 0.0515272 0.902568 -3.33498 -0.33541 -0.000365504 -0.19189 
287 1 0.155022 0.696907 0.0490966 0.651542 -3.34776 0.670019 0.214136 0.170668 
689 1 0.210429 0.693013 0.102267 0.664928 -3.32298 -0.103939 -0.337173 -0.655973 
650 1 0.261161 0.643393 0.0994732 0.438127 -3.32624 -0.0526702 -0.052597 -0.32276 
246 1 0.147089 0.654663 1.00053 0.467386 -3.30423 0.196915 0.161003 -0.0365086 
256 1 0.316847 0.635108 0.0488072 0.411912 -3.27567 0.140398 0.194392 0.0167624 
657 1 0.367948 0.629217 0.100351 0.994438 -3.30682 0.46407 -0.232731 -0.29873 
291 1 0.270299 0.683996 0.043888 1.40465 -3.30554 -0.44432 0.0845541 0.665348 
260 1 0.381115 0.670209 0.0512321 0.914051 -3.24831 -0.182092 -0.0998054 -0.460242 
654 1 0.329321 0.682197 0.0985302 1.9654 -3.25924 -1.2255 -0.692349 -0.0258099 
297 1 0.385932 0.720751 0.997872 2.2768 -3.28172 -0.0556726 -0.711384 -0.173777 
264 1 0.438752 0.710386 0.0500178 1.22771 -3.28118 0.779427 -0.204189 -0.377691 
263 1 0.48823 0.659006 0.0488667 0.992816 -3.25742 0.20442 0.0116517 0.364857 
658 1 0.389127 0.715928 0.0973171 0.699404 -3.22991 -0.0380375 0.358485 0.432024 
661 1 0.434196 0.664015 0.0972042 0.544313 -3.27723 0.0877883 -0.246325 0.634674 
662 1 0.496231 0.698374 0.103927 0.660268 -3.32913 0.270764 0.348773 -0.481163 
262 1 0.501736 0.693714 0.999172 3.25438 -3.23173 -0.311919 1.38546 -0.15092 
267 1 0.603581 0.641066 0.0476032 0.651758 -3.35645 0.138967 0.0275481 0.262968 
268 1 0.555106 0.691788 0.051242 0.37998 -3.31777 -0.239859 0.00845119 0.195104 
266 1 0.609786 0.683865 0.999381 0.544038 -3.30304 0.528684 0.0515887 -0.0971559 
666 1 0.611207 0.683457 0.102393 0.635935 -3.27925 0.341755 0.394337 -0.201397 
665 1 0.549271 0.651861 0.101902 0.756078 -3.31237 -0.466723 -0.759656 -0.222485 
265 1 0.546155 0.650595 0.998122 0.537264 -3.21433 0.595115 -0.732848 -0.0220329 
269 1 0.663154 0.63385 0.996373 0.599379 -3.3622 -0.420961 0.322252 0.0581333 
272 1 0.667225 0.677503 0.0500499 0.312732 -3.35981 0.335008 0.125273 -0.210589 
270 1 0.725056 0.670626 0.99641 0.965642 -3.28892 -0.128306 0.167455 0.420993 
309 1 0.680622 0.722457 1.00019 0.758352 -3.33652 -0.562469 -0.322386 0.154348 
311 1 0.731932 0.714023 0.0525917 0.908284 -3.35652 0.103167 -0.153904 0.0163605 
670 1 0.727744 0.672176 0.10364 1.25764 -3.31992 -0.0903997 -0.0242703 -0.414077 
709 1 0.671476 0.721671 0.102793 0.905106 -3.29509 0.494931 -0.409832 -0.44342 
276 1 0.780049 0.666376 0.0430356 3.26442 -3.30948 0.311275 -0.324544 1.01428 
315 1 0.853738 0.694025 0.0470788 1.20291 -3.27419 -0.550664 0.428528 0.508244 
674 1 0.843751 0.651245 0.0933601 2.00202 -3.27316 -0.298417 0.607516 0.77431 
713 1 0.794073 0.704448 0.0981837 0.402128 -3.39925 0.197589 -0.053602 0.224776 
274 1 0.844788 0.65454 0.997668 0.631903 -3.26184 -0.122553 0.215278 -0.00807446 
313 1 0.791686 0.707357 0.00061516 0.526486 -3.27291 -0.0259952 -0.00406806 0.256197 
280 1 0.898339 0.648413 0.0490848 1.19702 -3.26428 1.2131 -0.541554 0.0651677 
319 1 0.969775 0.681895 0.0483196 0.66082 -3.31676 -0.20136 -0.405273 0.685507 
678 1 0.960553 0.641412 0.103732 0.855272 -3.36911 0.185998 0.00346656 -0.428514 
317 1 0.90985 0.68617 1.00092 0.742426 -3.2859 0.367615 0.467545 -0.330536 
717 1 0.908305 0.690857 0.101291 0.894631 -3.37182 0.068289 -0.499983 -0.254219 
318 1 0.977339 0.720267 1.0047 0.979451 -3.33143 0.264754 0.72043 -0.532328 
288 1 0.103851 0.745454 0.0487707 1.02848 -3.21331 0.582316 0.958997 0.218579 
323 1 0.0546771 0.795404 0.0500718 0.504518 -3.3138 -0.186957 0.102126 0.0616676 
721 1 0.045854 0.756882 0.101087 0.44601 -3.25818 -0.169906 -0.241604 0.0698068 
725 1 0.109742 0.788959 0.099263 0.278214 -3.32345 0.144368 0.0230337 0.119607 
282 1 0.0501102 0.755007 0.99946 1.05847 -3.24373 -1.02766 0.038345 0.479435 
292 1 0.222 0.733184 0.0474707 0.934259 -3.37488 -0.373509 -0.184134 -0.0915223 
327 1 0.170149 0.783835 0.04855 0.476225 -3.29302 -0.437669 -0.0558485 0.365123 
686 1 0.160556 0.737672 0.099672 0.862714 -3.28835 -0.0581696 0.580985 -0.0434965 
690 1 0.221023 0.774926 0.0981298 0.594166 -3.31016 0.12248 0.366914 0.175914 
295 1 0.330767 0.721636 0.0495113 0.609819 -3.28796 0.248949 0.0793846 -0.0153323 
296 1 0.284433 0.769738 0.0473762 0.90134 -3.31653 -0.317239 0.316872 -0.0329996 
294 1 0.336503 0.766067 0.995581 0.724242 -3.25594 -0.0863563 0.129378 0.29825 
300 1 0.345052 0.808568 0.0536346 1.69575 -3.26186 -0.289562 -0.473108 -0.664618 
694 1 0.286665 0.809316 0.0984247 1.8478 -3.32894 -0.302047 0.746125 0.344716 
693 1 0.274457 0.730107 0.0987897 0.678178 -3.25084 -0.408004 -0.713611 0.0364515 
697 1 0.334141 0.763759 0.10038 0.47057 -3.22127 0.542038 -0.101134 -0.084565 
299 1 0.393343 0.75854 0.0444685 1.63022 -3.28086 -0.350457 0.283142 0.822059 
304 1 0.453966 0.792738 0.0520865 0.704994 -3.32628 0.195628 0.407444 0.0649921 