ITEM: TIMESTEP
14500
ITEM: NUMBER OF ATOMS
4000
ITEM: BOX BOUNDS pp pp pp
2.8720609642053452e+00 3.7627939035794085e+01
-3.4760081696734368e+00 4.3976008169672696e+01
-1.5420628869939923e-01 4.0654206288699875e+01
ITEM: ATOMS id type xs ys zs c_csym c_peratom fx fy fz 
405 1 0.0332755 0.0696698 0.0965854 1.47383 -3.35619 0.0413491 -0.403891 -0.0285619 
7 1 0.092369 0.0559528 0.0471015 1.0151 -3.26891 0.270672 0.5425 1.04514 
3 1 0.0295419 0.0232147 0.0529257 0.772701 -3.32496 -0.360606 -0.392028 0.0981488 
2 1 0.0321407 0.0652476 1.00558 1.90913 -3.3053 -0.184736 0.0431345 -0.64617 
5 1 0.0851874 0.0170891 0.00168438 0.61681 -3.251 -0.319777 -0.468867 -0.328961 
12 1 0.159846 0.0917251 0.0477443 0.769306 -3.34979 -0.489167 0.0341512 0.185142 
11 1 0.205234 0.043846 0.0483715 0.503274 -3.33623 0.413585 -0.151967 -0.00978629 
10 1 0.212442 0.0833895 -0.00415655 0.627011 -3.30416 -0.268462 0.116384 0.515842 
9 1 0.14907 0.0478382 -3.98455e-05 0.625641 -3.26692 0.175008 0.492901 -0.401761 
409 1 0.149725 0.0484354 0.0989351 0.956433 -3.34451 -0.0430526 0.333683 0.110835 
410 1 0.213901 0.0836008 0.101925 0.30156 -3.33126 0.193522 -0.266872 -0.0738209 
16 1 0.273449 0.0745436 0.0496096 0.535193 -3.30355 -0.38049 0.422864 0.11272 
15 1 0.322964 0.0293771 0.0474401 0.997355 -3.28934 0.374968 -0.335343 0.688828 
413 1 0.268228 0.0359876 0.0993644 0.529499 -3.28888 0.217191 0.0934823 0.385007 
14 1 0.326642 0.0702095 0.000923485 0.801177 -3.2438 0.140614 -0.0921701 -0.453496 
20 1 0.388022 0.0649136 0.0533516 0.977169 -3.28372 -0.396195 -0.522844 0.440113 
19 1 0.439614 0.012887 0.0567562 1.08886 -3.27736 0.0952721 -0.365985 -0.850568 
418 1 0.445446 0.0517176 0.103581 0.856872 -3.31292 -0.00146838 0.681376 -0.0191045 
21 1 0.496701 0.00745025 0.000214793 0.677829 -3.29245 0.0351032 -0.495722 0.263975 
17 1 0.383576 0.0243064 0.00370426 1.50106 -3.25958 -0.347898 -0.794824 -0.110084 
18 1 0.442062 0.0560327 0.00127851 0.421543 -3.20042 0.592962 -0.188411 -0.122785 
24 1 0.499636 0.0466676 0.0501305 0.54155 -3.34448 0.53896 0.484554 0.208845 
28 1 0.619694 0.030632 0.0501428 0.56132 -3.31092 -0.604446 0.161423 0.357657 
63 1 0.567425 0.0831989 0.0492245 0.516211 -3.34226 -0.494703 -0.538475 0.274854 
61 1 0.500662 0.0898641 1.00108 1.97177 -3.29022 1.06783 0.348634 0.0434503 
421 1 0.499932 0.00286851 0.104222 0.627341 -3.21187 -0.381845 0.240751 -0.321206 
22 1 0.559501 0.0410791 -0.00249752 0.835275 -3.3093 0.111274 0.121276 0.418845 
32 1 0.730056 0.015194 0.0506974 0.272844 -3.33134 0.482589 -0.0400166 0.0719101 
67 1 0.680514 0.0642372 0.0498816 0.143517 -3.30987 0.220394 0.369432 -0.168232 
469 1 0.73978 0.057718 0.101729 0.187692 -3.26701 -0.178511 -0.291911 -0.160522 
426 1 0.677035 0.023331 0.0999705 0.35961 -3.31733 -0.371826 -0.317786 0.246771 
465 1 0.625299 0.0732341 0.103035 0.466197 -3.33552 -0.591528 -0.233204 -0.19735 
65 1 0.623957 0.0737703 -0.00258607 0.356012 -3.26472 -0.0571038 -0.580848 0.468183 
36 1 0.793464 0.052231 0.0521235 0.690499 -3.35663 0.290232 -0.279578 -0.377013 
35 1 0.845947 0.00168362 0.0535266 0.605833 -3.33678 0.0976424 0.112834 -0.295305 
434 1 0.856627 0.0424127 0.105698 0.604878 -3.30133 -0.101064 0.0642934 -0.27011 
430 1 0.792997 0.0100567 0.102926 0.607252 -3.31838 -0.489294 -0.123456 -0.464344 
34 1 0.853078 0.0412954 0.00139777 0.287084 -3.34404 -0.260771 0.243134 0.216213 
4 1 0.968801 0.0727572 0.0477188 2.20555 -3.28504 0.495664 0.0146215 0.529028 
40 1 0.912286 0.0318588 0.0545618 1.17686 -3.31658 -0.140251 0.0959656 -0.24996 
401 1 0.968999 0.0294269 0.0984994 0.889488 -3.34543 0.261332 0.02007 0.214122 
37 1 0.906897 0.994677 1.00353 0.404391 -3.31008 -0.360978 -0.163108 -0.123091 
6 1 0.0978537 0.0969863 1.00162 0.896961 -3.31693 0.119244 0.459017 -0.401752 
8 1 0.0435784 0.112387 0.0475628 2.14772 -3.30692 -0.281179 -0.631991 0.619011 
43 1 0.993026 0.157638 0.0499094 0.824393 -3.31128 -0.39064 -0.0468525 0.136249 
45 1 0.0482244 0.151083 0.999815 0.615578 -3.28184 0.171309 -0.0400602 -0.109508 
47 1 0.109128 0.142551 0.0524465 0.563279 -3.28277 -0.348599 -0.232658 -0.128178 
406 1 0.100713 0.100464 0.101357 0.326442 -3.31146 -0.32127 -0.143149 -0.349055 
446 1 0.116042 0.183852 0.0976993 1.11033 -3.31195 -0.311295 0.0656362 0.614359 
52 1 0.170171 0.177585 0.0501817 0.538736 -3.28648 0.513861 -0.284699 0.237585 
51 1 0.222879 0.124976 0.0507165 0.437413 -3.35651 -0.105102 0.0977666 -0.193602 
449 1 0.164823 0.130866 0.101624 0.914203 -3.2841 0.176802 0.90439 -0.316591 
55 1 0.335493 0.112585 0.0549103 0.716822 -3.34469 -0.0661741 -0.153152 -0.125738 
56 1 0.286819 0.161585 0.0509307 0.542396 -3.32181 -0.0545718 -0.1053 -0.0725232 
453 1 0.276126 0.119103 0.100819 0.613353 -3.31367 0.547995 -0.385613 0.176027 
53 1 0.278251 0.11559 -0.0020049 1.41125 -3.29105 -0.0208954 0.673179 0.504999 
59 1 0.448001 0.0991903 0.0527739 0.501454 -3.28904 0.431076 -0.133775 0.0337377 
60 1 0.397266 0.146287 0.0533199 0.542652 -3.30556 -0.171478 0.226899 -0.194665 
57 1 0.390849 0.0994035 0.00159574 1.97491 -3.24497 0.493184 0.992306 -0.176633 
58 1 0.455613 0.140299 0.00252391 0.623262 -3.31127 -0.616202 -0.347467 -0.38221 
99 1 0.462861 0.17863 0.0529842 0.780215 -3.26413 0.059747 0.742522 -0.227129 
458 1 0.454132 0.141696 0.099714 1.27165 -3.24134 0.413353 -0.294594 1.07897 
64 1 0.516358 0.132203 0.053856 0.691388 -3.26871 -0.0854439 -0.371076 -0.135371 
103 1 0.577718 0.167758 0.0554665 0.848861 -3.30339 0.192854 -0.432568 -0.438681 
101 1 0.518912 0.168207 1.00394 1.91379 -3.26297 0.812246 0.635643 -0.481322 
62 1 0.572501 0.121678 0.998329 0.705435 -3.29883 -0.575799 -0.0447871 0.0992889 
68 1 0.628407 0.115969 0.051281 0.293313 -3.3355 0.274189 0.283844 0.13762 
72 1 0.694352 0.152807 0.0483238 1.30054 -3.32938 -0.419017 -0.387757 0.571452 
69 1 0.682888 0.108156 0.999477 0.698203 -3.33312 0.781605 0.274799 0.29955 
75 1 0.864013 0.0825987 0.0528937 1.03169 -3.34275 -0.490853 0.282642 -0.428695 
473 1 0.801802 0.0906067 0.101361 0.786951 -3.29014 0.960767 0.41283 -0.236294 
71 1 0.742846 0.101373 0.0520734 0.600563 -3.29273 0.0172172 -0.42309 -0.450775 
76 1 0.806913 0.134392 0.0503631 0.749859 -3.27025 0.977824 -0.356773 0.383035 
73 1 0.800152 0.0910809 -0.00217259 1.10622 -3.31925 0.332386 0.222328 0.555405 
79 1 0.926222 0.122409 0.0534696 1.10673 -3.29373 -0.533771 -0.130107 -0.559108 
80 1 0.867631 0.174142 0.0534336 1.60153 -3.33401 0.605472 -0.29534 -0.204057 
48 1 0.0537347 0.194542 0.0540261 1.09076 -3.33191 0.33183 -0.306788 -0.440245 
42 1 0.996829 0.197886 0.00152039 1.23632 -3.31557 -0.322284 0.467102 -0.000183922 
83 1 0.00443429 0.240772 0.0553105 0.789515 -3.35116 0.0613072 0.331758 -0.454637 
485 1 0.0658472 0.232981 0.102298 0.864272 -3.36266 -0.0214807 0.292441 0.031758 
85 1 0.0607405 0.233349 -0.00119445 1.08196 -3.36768 0.148952 0.351698 0.207735 
87 1 0.123487 0.228311 0.0490605 0.818526 -3.26224 -0.623342 -0.427213 0.214879 
91 1 0.238234 0.210251 0.0558579 1.02927 -3.27705 -0.742629 0.0436182 -0.730991 
92 1 0.187703 0.262886 0.053922 0.663493 -3.2995 0.392822 -0.215443 -0.211364 
86 1 0.126666 0.271466 0.00792854 1.91031 -3.24797 0.0901956 -0.513929 -0.9991 
489 1 0.176839 0.21846 0.0983089 0.837512 -3.31255 0.270508 0.113553 0.548646 
89 1 0.1782 0.219224 0.00364727 0.32101 -3.3393 0.404763 0.304491 -0.219692 
95 1 0.352332 0.202929 0.0522173 2.58222 -3.26927 -0.549151 -0.924292 0.106733 
96 1 0.296022 0.248427 0.0557239 1.82839 -3.29525 0.791589 -0.300255 -0.269059 
93 1 0.291254 0.203603 0.00487493 0.630758 -3.34208 -0.0551147 0.119761 -0.106366 
493 1 0.288367 0.20456 0.101981 1.08155 -3.23168 1.00388 0.184412 0.197003 
94 1 0.354112 0.239268 0.00205989 0.854186 -3.27199 0.247498 0.414678 -0.0661452 
100 1 0.418386 0.230843 0.0510537 0.732036 -3.34779 0.164935 0.100883 0.117932 
139 1 0.482439 0.262017 0.0452299 2.39978 -3.22377 -0.0673534 -0.0757915 0.899239 
497 1 0.407576 0.190369 0.104216 0.475588 -3.31093 0.0258839 0.19814 -0.272483 
97 1 0.404744 0.189591 0.0024197 0.665157 -3.36082 0.239233 -0.231684 -0.0558037 
98 1 0.476637 0.218508 1.00061 1.27885 -3.33788 -0.161611 -0.0104912 -0.0286604 
104 1 0.529466 0.213316 0.0545742 0.68863 -3.32211 -0.0695351 0.274223 -0.422361 
108 1 0.595616 0.251146 0.0502343 0.522069 -3.37445 -0.0136529 -0.0145429 -0.164738 
502 1 0.585654 0.205001 0.106208 0.981567 -3.19851 0.0766115 0.541093 -0.510321 
102 1 0.534612 0.257955 0.999059 0.869815 -3.29154 0.826752 -0.308851 -0.219438 
105 1 0.583911 0.205271 1.00071 0.528047 -3.35668 -0.10217 0.2377 0.0808018 
107 1 0.642943 0.19971 0.051414 0.307223 -3.3322 -0.0108739 0.115247 0.0156526 
509 1 0.700457 0.196502 0.102215 1.48858 -3.34854 0.433999 -0.621557 -0.248053 
112 1 0.708166 0.235173 0.0447097 1.46635 -3.29628 -0.358389 0.081319 0.845368 
506 1 0.650104 0.238926 0.103898 1.68238 -3.28989 0.102257 0.720898 -0.529742 
115 1 0.819344 0.225379 0.0534741 1.29558 -3.31506 0.146507 -0.0992879 -0.293275 
111 1 0.762137 0.181823 0.0547834 2.66168 -3.25984 -0.3518 0.822595 -0.493668 
116 1 0.768945 0.276591 0.044803 0.871902 -3.31592 0.286192 -0.375661 0.232453 
114 1 0.828411 0.270159 -0.000811421 1.93471 -3.30889 0.249051 -0.582919 0.375886 
517 1 0.828817 0.270676 0.0985061 1.29505 -3.31183 0.0430416 -0.334097 -0.273665 
44 1 0.934156 0.209162 0.0469021 2.20501 -3.35158 0.350528 -0.548232 0.220219 
81 1 0.948437 0.253474 0.00259325 1.12256 -3.28124 0.311101 -0.289116 0.168575 
119 1 0.886761 0.255806 0.0520725 1.52875 -3.32342 0.0264462 0.594369 0.266886 
117 1 0.875853 0.218267 0.00367532 1.74241 -3.2381 0.0918713 -0.118128 -0.0240078 
478 1 0.881199 0.214323 0.104464 1.53639 -3.23383 -0.170376 -0.172132 -0.903134 
481 1 0.945701 0.246494 0.101531 0.790938 -3.29066 0.0174011 0.552644 -0.386755 
88 1 0.0706174 0.275275 0.0534519 0.753061 -3.3094 -0.448746 0.15401 -0.0564067 
123 1 0.0221149 0.328649 0.0513578 0.503297 -3.34611 -0.208389 -0.376592 0.0600706 
128 1 0.0841755 0.36595 0.0515204 1.83796 -3.27404 -0.0600079 -0.531169 -0.0369942 
482 1 0.0166121 0.286541 0.10613 1.98874 -3.30506 -0.499744 -0.327158 -0.530989 
525 1 0.0769973 0.32078 0.100315 0.31816 -3.32723 0.24754 -0.0690385 -0.00775731 
82 1 0.0169991 0.283957 0.00203096 0.642667 -3.36281 -0.261217 -0.195589 -0.0312691 
129 1 0.193256 0.302909 0.00486796 0.637021 -3.28035 0.563147 0.0693884 -0.585256 
127 1 0.140023 0.311389 0.0513275 0.961334 -3.21587 -0.602122 0.288138 0.880703 
132 1 0.202861 0.344479 0.048773 0.88036 -3.28848 0.863347 0.0478722 0.494563 
526 1 0.139198 0.356867 0.100429 1.83711 -3.20414 0.47491 -0.880322 -0.0586579 
126 1 0.142643 0.352378 0.0076786 2.46313 -3.18774 0.215322 -0.0876034 -1.07633 
131 1 0.25604 0.294867 0.0479749 1.4672 -3.24953 -0.506152 0.810052 0.884368 
136 1 0.322546 0.333655 0.0505336 1.02859 -3.2547 -0.743632 -0.887508 -0.0363134 
533 1 0.310651 0.290229 0.100526 0.282194 -3.36387 0.0472193 -0.0603371 0.0944456 
130 1 0.264526 0.337548 0.000662637 0.555268 -3.34054 -0.490391 0.516002 0.0655051 
135 1 0.369716 0.279336 0.0463095 1.50476 -3.31429 -0.522009 -0.0694079 0.720315 
140 1 0.434933 0.310491 0.0471252 2.04304 -3.21048 -0.570599 0.719573 0.723109 
538 1 0.486557 0.302433 0.0968867 3.43193 -3.27942 0.59026 0.675644 0.262321 
577 1 0.439522 0.359026 0.100546 0.687542 -3.35537 0.117806 0.227916 -0.126401 
144 1 0.494093 0.354692 0.048095 1.01217 -3.25799 -0.373217 -0.550089 0.706562 
534 1 0.375222 0.325173 0.101301 0.42084 -3.29539 -0.0441693 0.058124 0.130477 
137 1 0.425816 0.270841 0.995551 1.21578 -3.23704 0.024478 0.110535 0.561598 
134 1 0.379414 0.318315 0.999253 1.62448 -3.3038 -0.470362 0.729601 -0.07197 
141 1 0.487772 0.307122 1.00492 1.94454 -3.22202 0.447619 0.475274 -1.42186 
143 1 0.544422 0.302022 0.049628 0.652068 -3.31231 0.298891 -0.35602 0.0291429 
545 1 0.60446 0.294486 0.102442 0.8738 -3.30706 0.0132047 -0.454548 -0.496337 
148 1 0.608514 0.336832 0.052681 1.03514 -3.32619 0.128909 -0.0210316 -0.593616 
542 1 0.551709 0.342607 0.0975868 0.708535 -3.33352 -0.335873 0.213394 0.420785 
147 1 0.659224 0.287298 0.0464057 0.667677 -3.3147 -0.230934 -0.440699 0.482938 
151 1 0.723087 0.323502 0.0395901 2.30523 -3.29617 -0.0106667 0.447637 0.531917 
152 1 0.67267 0.374602 0.0491309 0.704317 -3.33134 -0.126388 -0.309848 -0.0488283 
150 1 0.72637 0.375105 0.998599 4.9673 -3.20941 0.649892 -1.5398 -0.0302699 
549 1 0.670949 0.331338 0.0947432 1.02445 -3.31455 -0.219537 -0.176058 0.0876144 
120 1 0.837508 0.312933 0.0420831 2.32684 -3.29135 -0.031223 -0.184618 0.605207 
153 1 0.7765 0.319724 0.991157 2.45274 -3.26006 0.396946 -0.0906622 0.636812 
155 1 0.787801 0.36222 0.046139 0.418747 -3.34098 0.0845301 -0.171298 0.101134 
157 1 0.846289 0.354821 0.999006 1.02004 -3.3032 0.0977255 -0.21698 -0.159171 
514 1 0.779565 0.316965 0.0920668 1.08053 -3.33328 -0.206574 0.232905 0.401858 
557 1 0.844588 0.349963 0.0982528 0.697271 -3.32849 0.225679 0.174972 -0.120527 
84 1 0.958302 0.290506 0.0564342 0.966368 -3.33341 0.0448664 -0.153073 -0.270563 
159 1 0.913654 0.339988 0.0494625 2.64561 -3.30042 -0.776609 0.573315 0.460018 
121 1 0.965142 0.333995 1.00255 0.333321 -3.31628 0.135136 0.160112 -0.309618 
518 1 0.894493 0.300931 0.100621 0.620122 -3.33942 0.0152176 -0.0795109 -0.0979842 
118 1 0.901309 0.299132 0.00602292 2.14866 -3.27259 -0.316852 0.198079 -0.50605 
122 1 0.0314823 0.37166 0.0013436 0.690927 -3.29524 0.0287144 -0.219245 0.149839 
522 1 0.0254878 0.367336 0.101782 0.935185 -3.34148 0.313085 0.377966 0.260029 
163 1 0.0403639 0.416518 0.052393 1.7574 -3.28319 0.014831 -0.629277 -0.0812985 
168 1 0.107731 0.445577 0.0528326 0.788733 -3.35682 -0.112863 -0.0444129 -0.192156 
565 1 0.0969278 0.402447 0.0994733 0.978783 -3.29586 -0.335584 0.832194 0.430642 
167 1 0.159112 0.391184 0.0491745 2.70257 -3.22286 -0.188152 1.26786 0.492351 
172 1 0.222921 0.430856 0.0495963 0.430339 -3.36306 -0.254523 -0.0631058 0.211293 
569 1 0.208368 0.382744 0.101346 2.89579 -3.30764 0.646621 0.748721 -0.00531377 
566 1 0.162631 0.44158 0.102421 1.10966 -3.29962 -0.258321 -0.816019 -0.502226 
171 1 0.274473 0.381823 0.0467741 1.05886 -3.30554 -0.598645 -0.141431 0.343768 
176 1 0.332926 0.419156 0.0486387 0.863502 -3.23099 0.194137 -0.477842 0.25872 
573 1 0.322978 0.376448 0.100784 0.730148 -3.24492 -0.274221 -0.447349 0.185295 
570 1 0.276953 0.426718 0.0980965 0.873842 -3.34036 -0.368454 -0.35259 0.282969 
175 1 0.382117 0.36388 0.0507082 0.701143 -3.25684 0.871481 0.58465 0.0752149 
179 1 0.444006 0.401246 0.0447289 1.74816 -3.31005 0.0751369 0.249562 0.733871 
183 1 0.555822 0.388635 0.0499304 0.605813 -3.23288 0.432744 -0.0601935 0.710586 
184 1 0.51393 0.441621 0.0453676 1.36454 -3.31115 -0.407531 -0.188616 0.938111 
189 1 0.677303 0.415205 1.0021 1.34614 -3.26708 -0.0616748 0.583154 -0.483996 
187 1 0.618653 0.421833 0.0457485 2.00456 -3.22534 0.96907 0.222413 1.01879 
191 1 0.692839 0.45864 0.0459299 0.375904 -3.30725 -0.140871 -0.113575 0.217907 
186 1 0.634023 0.465606 0.99938 0.506936 -3.29581 0.130999 -0.0304944 -0.239474 
550 1 0.683632 0.415333 0.0990991 0.519285 -3.34814 0.0218907 0.31245 -0.277349 
156 1 0.739136 0.409819 0.0488877 0.431997 -3.29149 0.129819 0.221355 0.0519959 
154 1 0.798146 0.401702 0.996941 0.546714 -3.34433 -0.0497746 0.26082 -0.023259 
160 1 0.859434 0.392814 0.0533634 1.23652 -3.35209 -0.345278 -0.0673462 -0.130978 
195 1 0.805039 0.441551 0.0465048 1.13052 -3.32996 0.461206 0.084342 0.302615 
197 1 0.865651 0.435419 5.80928e-05 0.33163 -3.32826 -0.144163 -0.131018 -0.392197 
124 1 0.977017 0.377962 0.0503447 0.997266 -3.31296 -0.431457 -0.246725 -0.124903 
158 1 0.913788 0.384624 -0.000680125 0.77516 -3.31258 0.331566 -0.276889 0.511104 
199 1 0.922862 0.424882 0.0471991 1.32078 -3.32875 0.0918453 0.398653 0.364929 
561 1 0.975835 0.416312 0.0990085 1.26649 -3.31935 0.499236 0.611013 0.299431 
203 1 0.0592726 0.494877 0.0498942 0.756253 -3.33286 -0.447667 -0.344756 -0.134524 
204 1 0.00906085 0.547123 0.0492564 0.835689 -3.32982 -0.870792 -0.204326 -0.0829797 
201 1 1.00214 0.501079 -0.00373618 1.46162 -3.26827 -0.70448 0.264029 0.538984 
605 1 0.11238 0.489478 0.101519 0.526043 -3.29648 -0.228067 -0.111918 -0.37246 
164 1 0.989649 0.462103 0.0503963 0.375388 -3.29818 0.0977767 0.219258 0.351433 
602 1 0.0633198 0.537443 0.0939396 1.79251 -3.26932 0.0214591 0.299781 0.636726 
208 1 0.121516 0.528891 0.0484651 0.884649 -3.3597 0.105499 0.518071 -0.315176 
207 1 0.16948 0.48144 0.0473591 0.632685 -3.3071 0.080562 -0.0412455 0.173621 
212 1 0.235431 0.513853 0.0498201 0.776443 -3.34872 0.337783 0.300787 0.207254 
609 1 0.224548 0.475252 0.10036 0.548402 -3.2701 0.414455 -0.031693 -0.42537 
606 1 0.175524 0.523625 0.0983553 0.259471 -3.3227 0.110941 -0.00355961 0.0664259 
211 1 0.289624 0.465906 0.0445451 2.03127 -3.24833 -0.546827 0.46856 0.959074 
215 1 0.354668 0.5027 0.0519935 0.740301 -3.33778 -0.172723 -0.392834 -0.160223 
613 1 0.341143 0.460159 0.103941 0.836688 -3.32943 0.392298 -0.0735558 -0.220686 
213 1 0.296396 0.512859 -0.00214489 1.62357 -3.34473 -0.225119 -0.0878101 0.432418 
180 1 0.397162 0.448388 0.0539472 1.96551 -3.33696 0.393131 0.476388 -0.301118 
578 1 0.455844 0.444884 0.0994858 0.670001 -3.29105 -0.0456074 -0.00414019 -0.199458 
219 1 0.466832 0.491181 0.0521945 1.20916 -3.29042 0.386286 -0.363378 -0.801193 
621 1 0.47622 0.531643 0.100665 0.631775 -3.31953 -0.303056 0.0568098 0.167131 
188 1 0.578794 0.473441 0.0487514 0.3398 -3.29138 -0.215218 0.146095 -0.0115235 
582 1 0.524815 0.482389 0.0979479 0.627347 -3.2748 -0.75561 -0.705814 0.0675776 
225 1 0.585445 0.516534 -0.000698782 0.486596 -3.35073 0.199985 0.0433796 0.0520326 
223 1 0.5346 0.526744 0.0493511 1.36845 -3.33117 -0.38808 -0.309891 -0.0751317 
586 1 0.586953 0.512506 0.100199 1.57197 -3.23724 0.65117 0.768944 -0.639985 
192 1 0.64289 0.504671 0.0466279 1.4263 -3.33453 0.277095 0.96585 0.269915 
190 1 0.699723 0.502835 -0.00507134 1.00038 -3.32032 -0.265861 -0.0219076 0.466609 
231 1 0.707148 0.545008 0.0504259 0.957319 -3.34077 -0.126464 -0.512655 -0.612106 
229 1 0.647356 0.556235 1 1.33707 -3.33656 0.416812 -0.321665 -0.228814 
629 1 0.649365 0.557424 0.096697 2.79999 -3.2473 0.187717 -0.918482 -0.209842 
196 1 0.759442 0.492524 0.0504993 0.698018 -3.3104 -0.0111842 0.372438 -0.487248 
194 1 0.814646 0.485293 0.997509 0.214335 -3.3464 0.265096 0.139555 -0.095672 
235 1 0.824848 0.526109 0.0469992 0.322861 -3.27795 -0.295858 -0.237469 0.182656 
233 1 0.762082 0.534986 0.995514 1.1653 -3.3198 0.587827 0.170551 0.499982 
200 1 0.873273 0.475563 0.04472 1.067 -3.3167 -0.0642997 0.00917458 0.679428 
198 1 0.935338 0.473612 1.00282 2.66632 -3.23624 -0.373288 -1.09095 -0.890954 
239 1 0.942106 0.509511 0.047917 0.32472 -3.29633 0.089456 0.761489 0.528667 
237 1 0.882606 0.51864 0.998638 0.367438 -3.28724 -0.0871059 -0.077258 -0.17609 
243 1 0.0698793 0.584118 0.0510594 1.2269 -3.32662 0.00418592 -0.204438 -0.330887 
241 1 0.010586 0.588471 1.0006 0.410927 -3.34359 0.228014 0.202326 -0.3358 
244 1 0.0118813 0.62923 0.0504749 1.57819 -3.2308 1.45142 0.51782 -0.119588 
642 1 0.0773149 0.618554 0.102445 1.15161 -3.31286 -0.175527 0.57877 -0.200654 
641 1 0.00884208 0.587727 0.100339 0.735943 -3.29486 0.216552 -0.328106 -0.347877 
247 1 0.189578 0.565838 0.0511071 0.603315 -3.29011 -0.705939 -0.10653 0.341071 
248 1 0.143263 0.613913 0.052642 1.87941 -3.25316 -0.97536 -0.00127383 -0.157493 
645 1 0.126456 0.572078 0.0985122 0.348064 -3.34569 0.160763 -0.0685654 0.021128 
649 1 0.244304 0.554551 0.100365 0.687098 -3.33906 0.00148328 0.357395 -0.0779937 
251 1 0.253486 0.601554 0.0493501 0.998214 -3.3081 -0.19552 -0.213066 0.313365 
216 1 0.304312 0.54918 0.0554046 1.18423 -3.33188 -0.345784 0.103432 -0.471746 
255 1 0.366335 0.588488 0.0566896 1.69987 -3.28357 0.103474 -0.400921 -0.921952 
220 1 0.416312 0.538872 0.0533947 0.868236 -3.26692 -0.0392169 -0.213122 -0.451919 
259 1 0.428011 0.625949 0.0469093 1.40933 -3.31567 -0.0116793 -0.225776 0.585109 
224 1 0.477799 0.570818 0.0465595 1.17555 -3.29644 0.511939 0.597283 0.478071 
261 1 0.481435 0.618984 1.00017 1.96069 -3.28226 0.68975 -0.152148 0.0583051 
227 1 0.598062 0.561359 0.0493308 1.15743 -3.28327 -0.409983 -0.115878 0.0315036 
228 1 0.543854 0.605089 0.0462304 2.16022 -3.35921 -0.139122 0.56134 0.453865 
226 1 0.60059 0.607312 -0.0040009 1.43665 -3.33379 0.192593 -0.261598 0.46624 
222 1 0.538884 0.567432 -0.00202563 0.546024 -3.24915 -0.27147 -0.124554 0.340324 
267 1 0.609184 0.644184 0.0496538 0.328384 -3.32711 -0.172505 0.0825025 -0.0935546 
232 1 0.660753 0.598583 0.0487423 0.82342 -3.27154 -0.398298 -0.427164 -0.00645206 
230 1 0.715361 0.586166 4.5715e-05 0.431792 -3.33151 -0.109358 0.0923305 -0.170279 
271 1 0.724416 0.628481 0.0502961 0.409922 -3.26186 0.425426 0.0172076 -0.06214 
269 1 0.668263 0.639102 -0.000789248 0.478772 -3.31529 0.290176 -0.446883 -0.108828 
236 1 0.776947 0.575359 0.0482514 0.722913 -3.2946 -0.0160178 0.339222 -0.155534 
234 1 0.831767 0.566525 1.00163 1.01993 -3.30912 -0.0121644 0.487969 -0.698632 
275 1 0.839729 0.612177 0.0496777 0.407524 -3.35387 0.0962631 -0.304378 0.0440029 
273 1 0.777086 0.620269 1.00026 1.02006 -3.34435 0.698881 0.247965 -0.277064 
240 1 0.889014 0.557617 0.0472654 0.674667 -3.32875 0.547587 0.698456 0.360527 
238 1 0.948192 0.551931 -0.0039869 0.516247 -3.34984 0.0139033 -0.108699 0.439559 
277 1 0.89485 0.603649 -0.00344892 0.603514 -3.32808 -0.1198 0.0267642 0.465854 
279 1 0.952449 0.597288 0.045785 1.09281 -3.25417 -0.65593 -1.03523 0.389744 
283 1 0.0830388 0.662297 0.0511575 0.855451 -3.35298 -0.0125799 0.0442304 0.579024 
284 1 0.0381107 0.715936 0.0500007 0.303833 -3.35397 -0.063305 -0.134687 0.140967 
681 1 0.0283298 0.674371 0.0993635 0.479863 -3.36116 -0.17214 -0.336241 -0.235528 
682 1 0.0977399 0.705024 0.102563 0.648472 -3.30485 -0.018445 0.063173 -0.374361 
252 1 0.203327 0.649425 0.0536871 0.464667 -3.27369 -0.0781653 0.141286 -0.0767493 
287 1 0.150895 0.694808 0.0542721 0.979429 -3.3086 0.169978 0.261862 -0.12967 
689 1 0.206 0.68967 0.100555 0.740821 -3.31781 0.578848 0.37535 0.116915 
685 1 0.141526 0.651868 0.102217 1.24497 -3.24565 0.00261699 0.90081 -0.505451 
256 1 0.318043 0.63224 0.0518913 1.28163 -3.30355 -0.171121 0.679465 -0.387913 
291 1 0.267104 0.685694 0.0526492 0.522086 -3.36393 0.0735121 -0.0262748 0.0871906 
295 1 0.330592 0.725122 0.0487358 0.815048 -3.25505 0.20856 -0.678314 0.563539 
650 1 0.258521 0.640304 0.102184 0.434944 -3.33687 0.301454 0.340058 -0.0450835 
260 1 0.376212 0.673104 0.052017 0.837058 -3.32591 0.219917 -0.0370447 -0.434062 
297 1 0.386611 0.715968 0.000761894 0.761291 -3.34206 -0.0616317 0.00280218 -0.118885 
264 1 0.445135 0.712196 0.0495958 0.948342 -3.29095 -0.129889 -0.575956 -0.0829013 
258 1 0.439004 0.671253 1.00291 2.59125 -3.35803 0.0210635 -0.230526 -0.483536 
263 1 0.498241 0.658363 0.0518019 2.00217 -3.25559 -0.952196 0.0249779 -0.652589 
658 1 0.386879 0.715324 0.0973734 0.758977 -3.31496 -0.159581 0.449654 0.440703 
268 1 0.559374 0.693787 0.0467487 0.44805 -3.33743 0.202002 0.377712 -0.171663 
266 1 0.619322 0.682314 0.997574 0.907736 -3.32849 -0.448169 0.638882 0.146297 
705 1 0.570753 0.735679 0.0981461 0.93095 -3.36105 -0.225973 -0.354965 0.0736147 
272 1 0.676181 0.675929 0.0537952 0.766848 -3.31606 0.0823178 0.171197 -0.164297 
270 1 0.738331 0.672656 0.00210109 1.64272 -3.29367 -0.382416 -0.548957 -0.127588 
307 1 0.629512 0.722439 0.049718 1.88536 -3.31653 -0.529536 0.503046 -0.0940686 
309 1 0.68543 0.717217 1.00143 0.541762 -3.29964 -0.39781 0.0969065 -0.0271241 
311 1 0.743198 0.710587 0.0509381 0.568868 -3.31813 0.0716082 0.176743 0.170952 
666 1 0.614851 0.684976 0.103061 0.93575 -3.30733 0.456336 0.279599 -0.284879 
670 1 0.734293 0.669943 0.100598 0.499486 -3.32758 0.187801 0.3622 0.21838 
276 1 0.792935 0.659126 0.0524068 1.1713 -3.32565 -0.12061 0.402848 0.102633 
315 1 0.850943 0.699502 0.0529536 0.941136 -3.33154 0.288733 -0.152567 -0.192584 
674 1 0.848339 0.652194 0.105067 0.770809 -3.35443 -0.0305025 0.211169 -0.211366 
278 1 0.957825 0.639271 1.00353 0.835414 -3.29184 0.219034 0.28933 -0.911177 
280 1 0.901264 0.648517 0.0517356 0.623083 -3.32912 -0.0073923 -0.235179 0.277629 
319 1 0.966845 0.682862 0.0498154 0.4134 -3.29854 0.193451 -0.202727 0.423437 
678 1 0.962838 0.635431 0.0979516 1.19033 -3.25872 -0.450968 0.940086 0.342229 
317 1 0.910778 0.688586 1.00409 0.634505 -3.29367 0.135959 0.483108 -0.339833 
318 1 0.977619 0.723467 1.00306 0.579102 -3.35409 0.0921882 0.0856545 -0.454417 
288 1 0.106322 0.746949 0.0529889 0.908322 -3.2904 -0.551551 0.429186 0.322187 
323 1 0.0536388 0.80067 0.0518453 0.178535 -3.33995 0.278056 -0.220843 -0.20369 
721 1 0.0451058 0.756232 0.100694 0.486041 -3.36634 0.271965 0.225176 -0.237548 
292 1 0.214493 0.734501 0.0496289 0.553346 -3.31312 0.376889 -0.123567 -0.207191 
327 1 0.165989 0.787364 0.0512792 0.806175 -3.33871 0.391196 -0.165038 -0.293109 
686 1 0.165576 0.74226 0.0972853 1.33649 -3.26964 -0.639345 -0.349067 0.671603 
331 1 0.232974 0.823443 0.0522209 0.372578 -3.31457 -0.243342 0.158594 -0.25434 
690 1 0.222495 0.77953 0.0991893 0.506901 -3.24951 0.333383 0.196581 -0.325579 
296 1 0.281405 0.771456 0.0495633 0.307608 -3.29835 -0.305654 0.599576 -0.0124087 
294 1 0.338335 0.766222 1.00384 0.794103 -3.29742 0.112895 0.182837 -0.659376 
300 1 0.346451 0.808987 0.0495408 0.383836 -3.31592 -0.332746 0.172236 0.0163866 
333 1 0.285709 0.81651 -0.00237119 1.41188 -3.32673 0.311321 -0.111645 0.541381 
694 1 0.285586 0.820494 0.0969247 1.37031 -3.31319 0.660637 -0.39909 0.331748 
299 1 0.396608 0.758359 0.0527957 0.741155 -3.30717 -0.167143 0.0590285 -0.404498 
304 1 0.458782 0.793056 0.0546146 1.41027 -3.2699 0.711416 -0.0918695 -0.674801 
698 1 0.402102 0.803104 0.0955318 0.958302 -3.29434 -0.0995732 -0.0549571 0.937687 
701 1 0.453116 0.752103 0.102134 0.629809 -3.30517 -0.191976 -0.0356661 -0.0208801 
305 1 0.564314 0.73618 0.993192 1.57492 -3.27727 0.852136 0.332809 0.59036 
303 1 0.508076 0.743008 0.0470578 0.500398 -3.32211 0.562642 0.223286 0.144653 
308 1 0.579734 0.777995 0.0496438 0.942299 -3.34943 -0.489912 -0.418313 -0.218733 
302 1 0.51537 0.785428 1.00316 1.32247 -3.34435 0.227217 0.18115 -0.557778 
702 1 0.52071 0.781077 0.102996 1.45104 -3.30407 -0.22063 0.573391 -0.545572 
745 1 0.585649 0.81756 0.0999187 0.469167 -3.28976 -0.318786 0.436116 0.107124 
312 1 0.691145 0.759056 0.050574 0.517494 -3.34314 -0.0768642 0.239962 0.126607 
306 1 0.632204 0.768826 -0.000974566 0.390414 -3.34749 -0.0907616 -0.272888 0.258729 
347 1 0.640304 0.813414 0.0509227 0.444512 -3.20903 0.0593829 -0.549809 -0.14952 
349 1 0.696049 0.802324 0.00460202 1.57349 -3.28826 0.35334 0.243012 -0.522378 
310 1 0.744571 0.754395 -0.00415963 1.06515 -3.29584 0.460069 0.0712897 0.430614 
351 1 0.753212 0.797243 0.049564 0.63567 -3.34579 0.342532 0.272286 0.0635974 
316 1 0.803287 0.751013 0.0478325 1.19691 -3.35859 0.0515685 -0.397473 0.0846198 
353 1 0.810969 0.788654 0.996035 0.640071 -3.3045 0.373982 0.218044 0.189381 
314 1 0.859407 0.739345 -0.00145566 0.55231 -3.27418 0.461521 0.114503 0.0610655 
710 1 0.751121 0.750419 0.0996434 1.6242 -3.30312 -0.497463 0.295081 0.0659094 
753 1 0.809715 0.787723 0.102007 1.15629 -3.29308 0.332064 0.4159 -0.408594 
355 1 0.868211 0.784705 0.0490863 0.998468 -3.31409 0.0949177 -0.270963 -0.0454431 
320 1 0.91844 0.734448 0.0507752 0.505178 -3.31548 -0.102731 -0.515836 -0.203661 
359 1 0.98824 0.76555 0.0500195 0.296511 -3.33365 -0.115757 0.244743 -0.132231 
757 1 0.926378 0.772635 0.0987452 0.806039 -3.25467 0.942989 0.274877 -0.359662 
328 1 0.122563 0.835739 0.0515016 0.712054 -3.3206 -0.260702 0.441867 0.0905486 
363 1 0.0728058 0.886254 0.0507577 1.20445 -3.33239 -0.0957945 -0.21629 -0.155674 
722 1 0.0615144 0.843736 0.101111 0.435711 -3.37928 0.371134 0.353165 -0.137638 
332 1 0.184617 0.881103 0.047734 3.09302 -3.30082 -0.231333 -0.403228 0.332542 
730 1 0.191129 0.919309 0.108825 3.76419 -3.24855 0.392081 0.336973 -1.02599 
369 1 0.188294 0.922639 0.997286 1.18113 -3.3537 -0.167786 -0.204562 0.140567 
330 1 0.240451 0.868033 0.00353754 1.08585 -3.26732 0.176786 0.172836 -0.134316 
729 1 0.175744 0.830182 0.105267 1.17256 -3.30208 0.192776 -0.0552515 -0.493807 
336 1 0.247245 0.914697 0.045875 1.61671 -3.27137 0.124523 -0.36632 0.457197 
335 1 0.298217 0.864367 0.0517742 1.33657 -3.30356 -0.323557 -0.420959 -0.21454 
340 1 0.365689 0.894086 0.0447875 1.34076 -3.27528 -0.38332 0.163926 0.865147 
334 1 0.306554 0.905087 0.999699 0.673682 -3.3111 -0.344946 -0.262131 0.0576274 
734 1 0.30803 0.90251 0.100616 0.53879 -3.32015 -0.401069 0.274039 -0.185112 
737 1 0.357931 0.853892 0.0965899 0.700048 -3.34779 -0.399473 -0.251292 0.0705807 
339 1 0.4166 0.844486 0.0483328 0.86143 -3.20377 -0.971254 -0.424739 0.212013 
344 1 0.472902 0.879003 0.052887 1.50163 -3.19452 1.36172 0.088153 -0.0934275 
738 1 0.423641 0.884681 0.099843 0.685305 -3.2681 -0.649596 0.113293 0.244813 
741 1 0.472059 0.835226 0.0992201 0.774203 -3.35898 0.0503883 -0.0228597 0.436613 
338 1 0.420224 0.885075 0.000351826 0.563268 -3.20935 -0.0687503 -0.52346 -0.175278 
341 1 0.472779 0.838223 0.00471832 1.7588 -3.27532 -0.31758 -0.533972 -0.760692 
343 1 0.528091 0.826893 0.050504 0.2662 -3.34399 0.0995006 0.106178 0.331616 
348 1 0.594012 0.860651 0.048837 0.397723 -3.34424 -0.35532 0.319353 0.0284838 
383 1 0.544548 0.910102 0.0520808 0.778066 -3.34778 -0.048905 -0.0369934 -0.115931 
342 1 0.534457 0.870753 -0.00312132 0.582064 -3.32668 0.463595 0.171111 0.344017 
385 1 0.59853 0.907149 0.994262 1.50268 -3.31736 -0.0492226 -0.485734 0.299603 
352 1 0.701255 0.848004 0.0502267 1.37052 -3.31059 1.02988 0.160748 -0.0843694 
389 1 0.71386 0.889087 -0.00118082 0.385843 -3.30686 -0.30755 -0.118156 0.339262 
387 1 0.6535 0.897372 0.0467809 0.934308 -3.36054 0.336761 0.0663197 0.238325 
346 1 0.650846 0.853158 0.998021 0.606496 -3.27447 -0.19892 0.481102 0.106571 
746 1 0.651449 0.852101 0.0994855 0.508145 -3.3118 -0.310714 0.331576 0.529081 