ITEM: TIMESTEP
10750
ITEM: NUMBER OF ATOMS
4000
ITEM: BOX BOUNDS pp pp pp
2.1098706556178728e+00 3.8390129344381556e+01
-1.1233526093875750e+00 4.1623352609386686e+01
-1.1451362213967837e+00 4.1645136221396591e+01
ITEM: ATOMS id type xs ys zs c_csym c_peratom fx fy fz 
8 1 0.0953057 0.0525302 0.0497958 1.57804 -3.27825 0.393314 -0.221042 0.0344832 
3 1 0.0577709 -0.000721378 0.0507404 1.27399 -3.26975 -0.586955 0.104628 0.00787743 
402 1 0.0523469 0.0506172 0.104259 1.54952 -3.2046 0.337523 -0.353708 -0.804784 
401 1 0.00713355 -0.000639945 0.101505 1.67376 -3.33154 0.0250506 0.0741953 -0.414243 
12 1 0.206178 0.0508571 0.0520994 0.639311 -3.32768 0.20193 -0.0681341 -0.0254235 
47 1 0.153086 0.0966296 0.0513566 0.572624 -3.34736 -0.132158 0.380984 -0.174101 
11 1 0.251655 -0.00228889 0.0523488 1.30251 -3.21484 0.156377 0.549714 0.295402 
7 1 0.153182 0.0050118 0.0504501 1.00898 -3.33299 -0.42346 -0.0487053 0.00834839 
406 1 0.148178 0.0492853 0.100515 0.934734 -3.26819 0.0649415 0.378967 -0.322546 
449 1 0.20479 0.0963927 0.101 0.833778 -3.29288 0.128292 0.176251 0.152055 
16 1 0.296028 0.05041 0.0507251 1.2192 -3.2654 -0.00841669 0.106745 0.507688 
15 1 0.350307 0.00455527 0.0478039 1.22217 -3.26302 -0.236234 -0.108183 0.0132444 
414 1 0.348618 0.0542435 0.0983226 1.50858 -3.29112 0.300848 -0.0813508 0.0661603 
13 1 0.298932 -0.00012247 0.00195974 0.780848 -3.31166 0.255962 0.0768697 -0.345829 
20 1 0.400979 0.0544972 0.0483803 0.977491 -3.25955 -0.247469 -0.0790645 0.0690735 
24 1 0.500389 0.0538593 0.0495402 1.08595 -3.27258 -0.0533485 -0.486147 0.120737 
18 1 0.453554 0.0518144 0.00222394 0.712122 -3.28025 -0.0799852 0.0628884 -0.560462 
19 1 0.448202 0.00293998 0.0497164 0.553922 -3.27992 0.115272 -0.285007 0.346033 
418 1 0.446284 0.04709 0.0977085 1.94971 -3.32482 0.0132189 0.326762 0.657997 
28 1 0.602678 0.0492466 0.0512132 0.425319 -3.33994 -0.145975 -0.0162867 -0.207117 
22 1 0.550298 0.0469113 -0.0031468 1.28507 -3.32031 0.306323 0.127682 0.457966 
63 1 0.548678 0.0997984 0.0531351 1.17262 -3.25215 0.787949 0.0257594 -0.475679 
25 1 0.601266 -0.00427673 0.000981932 0.699244 -3.31169 -0.0361027 0.480518 -0.114909 
23 1 0.549533 0.00228688 0.047626 0.710335 -3.31607 -0.00988346 -0.243172 0.162185 
32 1 0.697903 0.0513552 0.0485011 1.12305 -3.27486 -0.0612179 -0.109618 0.745704 
67 1 0.647293 0.100976 0.0543815 1.11661 -3.26287 0.377245 -0.0511255 -0.0437505 
71 1 0.752021 0.0962692 0.0509702 0.707145 -3.24638 -0.45768 0.0325083 -0.0349761 
69 1 0.698809 0.103243 0.000869093 1.27826 -3.20949 0.039399 -0.551923 0.0610625 
36 1 0.799599 0.0470778 0.0501236 0.774806 -3.25888 -0.104706 -0.0247289 -0.0676313 
35 1 0.853645 0.00194078 0.0486383 0.627064 -3.33815 -0.226706 -0.0235962 0.329524 
75 1 0.848094 0.0999693 0.0472745 0.692886 -3.25426 0.261776 0.108185 0.539707 
434 1 0.849785 0.0519784 0.0972867 1.01599 -3.28009 0.601744 -0.555946 0.24107 
30 1 0.745615 0.0523353 0.00271554 1.30642 -3.28952 0.543185 -0.205451 -0.483325 
34 1 0.850118 0.052741 0.00241832 0.480532 -3.28565 0.0565454 -0.270405 -0.279428 
4 1 1.00337 0.0469361 0.0493574 5.88808 -3.27281 0.356961 0.321316 0.323576 
40 1 0.902436 0.0536627 0.0513843 0.832323 -3.24334 -0.161426 -0.292768 -0.687846 
39 1 0.953513 0.0025304 0.0536731 0.956903 -3.23341 -0.366217 -0.153489 -0.372663 
38 1 0.956494 0.0500627 -0.000845628 0.98194 -3.35278 -0.0621848 0.240819 -0.19159 
77 1 0.900925 0.0990888 0.000390963 0.728441 -3.28619 0.492326 0.272154 -0.084336 
445 1 0.0988896 0.100464 0.0966451 0.932145 -3.29022 0.359016 0.082866 -0.0632797 
43 1 0.0500384 0.100674 0.0456514 0.734964 -3.2439 -0.329579 0.217993 0.486279 
48 1 0.102135 0.149842 0.0478616 0.353902 -3.33508 0.281683 -0.214085 0.0383564 
83 1 0.0500337 0.198873 0.0501042 0.334326 -3.24238 0.038658 0.731502 -0.162823 
81 1 -0.00221812 0.203664 -0.000627049 1.06974 -3.29271 -0.0446055 0.0673761 0.0265542 
52 1 0.202863 0.148533 0.0508205 0.167676 -3.23257 -0.527344 0.266281 -0.178605 
446 1 0.155104 0.147631 0.099705 0.587774 -3.31487 -0.311811 0.0920176 -0.216696 
87 1 0.150455 0.200682 0.0498706 0.315886 -3.32279 0.0732871 -0.131914 -0.0644892 
49 1 0.206102 0.0966187 0.00227014 1.33811 -3.28298 -0.483424 0.476017 -0.158381 
51 1 0.252096 0.102499 0.0529169 0.533708 -3.25093 0.35656 -0.180178 -0.100244 
55 1 0.349882 0.102037 0.0546085 0.644525 -3.356 -0.0391852 0.0531871 -0.251887 
56 1 0.301742 0.152147 0.0511048 0.333939 -3.33058 -0.090113 -0.166066 0.26812 
59 1 0.449132 0.103695 0.0493791 1.3032 -3.30021 0.405249 -0.344814 0.0280809 
60 1 0.40161 0.150074 0.0547945 0.577676 -3.24146 0.200258 0.105874 -0.111619 
64 1 0.504204 0.150089 0.0480359 0.595349 -3.26355 0.11442 -0.0209991 0.0745773 
57 1 0.400763 0.0987451 -0.00176614 1.41578 -3.3093 -0.172092 0.0341461 0.201525 
461 1 0.499882 0.095864 0.100095 0.781401 -3.25751 -0.326032 -0.0524429 0.233885 
68 1 0.59879 0.15286 0.0559501 1.69894 -3.22145 -0.111433 -0.189959 -0.833505 
462 1 0.548705 0.145657 0.0997969 1.20719 -3.26344 -0.108732 0.312214 0.515848 
101 1 0.504017 0.195897 -0.000971418 0.659977 -3.25398 0.20873 0.369072 0.111584 
72 1 0.702935 0.145009 0.049706 1.27492 -3.29983 -0.021166 0.577752 0.482023 
107 1 0.653306 0.202633 0.0505873 0.709322 -3.2569 -0.255694 -0.378046 0.424467 
66 1 0.647554 0.148389 0.00555287 1.57269 -3.28768 -0.105377 0.398575 -0.284301 
70 1 0.750155 0.147226 -0.000621615 0.757187 -3.23583 0.145793 0.714374 -0.0796337 
109 1 0.701973 0.198348 0.00383088 0.986662 -3.32268 -0.111381 -0.0436407 -0.439857 
76 1 0.795925 0.147128 0.052231 1.76716 -3.24442 0.675968 0.358329 -0.583142 
513 1 0.799891 0.201084 0.101067 0.874867 -3.23223 -0.446563 -0.0868098 -0.0727477 
115 1 0.851854 0.198093 0.0514851 1.17511 -3.30126 -0.457366 -0.158008 -0.460725 
111 1 0.75641 0.20117 0.0492626 0.990596 -3.29852 -0.384366 -0.0775969 0.010655 
73 1 0.800692 0.104073 0.00123846 1.14872 -3.2387 -0.199371 -0.800119 -0.51488 
113 1 0.802766 0.202 -0.00152168 0.723464 -3.2479 0.116363 -0.809802 0.147337 
44 1 1.00475 0.15209 0.0488945 0.572179 -3.25335 -0.783286 -0.369291 -0.142552 
79 1 0.956239 0.100086 0.0460697 1.08995 -3.32126 -0.0811243 0.0925448 0.187385 
80 1 0.901697 0.147143 0.0468314 1.1258 -3.30041 -0.160216 0.197864 0.298435 
481 1 1.00221 0.19458 0.10044 1.16825 -3.2806 -0.0770162 0.657426 -0.0617963 
517 1 0.903303 0.196514 0.100067 0.686141 -3.23685 -0.0258614 0.578783 -0.123971 
41 1 1.00309 0.106866 -0.00296993 2.0976 -3.25667 -0.210775 -0.283893 -0.14923 
78 1 0.950623 0.155714 0.000222745 2.11848 -3.2946 0.075829 -0.550484 -0.298344 
88 1 0.09968 0.250805 0.0510797 0.41295 -3.25978 0.439559 -0.580764 -0.48698 
123 1 0.0555395 0.298536 0.0553148 2.01102 -3.19243 -0.568203 0.455447 -0.788478 
84 1 -0.00195649 0.250874 0.0508235 1.04948 -3.24456 0.760464 -0.689142 -0.0803729 
125 1 0.0953947 0.298938 -0.000878866 1.20727 -3.34079 0.0265356 0.33893 0.21678 
525 1 0.103943 0.301319 0.098856 0.716514 -3.13098 -0.303553 -0.400524 0.739493 
82 1 0.0500699 0.247746 -0.00115705 0.960075 -3.23611 0.397704 -0.073648 -0.0075166 
91 1 0.249443 0.200421 0.0489997 0.344166 -3.31983 -0.00531578 0.0775685 0.126169 
92 1 0.197325 0.249867 0.0434764 1.90117 -3.24838 0.249446 -0.0994988 0.918291 
86 1 0.149042 0.252884 -0.0026753 0.901189 -3.26097 -0.659449 -0.38193 0.178414 
489 1 0.201321 0.201603 0.0989875 0.336278 -3.29143 -0.0492392 0.132989 -0.123125 
490 1 0.250208 0.251876 0.0980131 0.367863 -3.28377 -0.388508 -0.388681 -0.147502 
90 1 0.249801 0.250937 0.0021442 0.689989 -3.26823 0.0055743 -0.309784 -0.358133 
93 1 0.302671 0.196881 0.00144059 0.615774 -3.2949 0.0197827 0.304033 0.343434 
95 1 0.354363 0.19762 0.0544236 0.702985 -3.24941 -0.446468 0.375085 -0.126875 
96 1 0.302915 0.245757 0.0507741 0.917858 -3.34846 -0.0513971 0.463535 -0.079366 
94 1 0.353658 0.24929 0.00255862 0.827458 -3.26297 -0.560247 -0.109007 -0.0588972 
97 1 0.399508 0.200191 0.004382 0.703493 -3.29151 0.46942 -0.0562097 -0.323816 
99 1 0.455944 0.197842 0.0485767 0.939984 -3.28719 -0.499081 0.0641832 0.31232 
100 1 0.402599 0.249262 0.0516265 0.208075 -3.28917 -0.183701 -0.223182 -0.113204 
98 1 0.454081 0.24868 0.00256632 1.09338 -3.2678 -0.5203 -0.204048 -0.300734 
104 1 0.499536 0.249342 0.0512409 0.780524 -3.29103 0.415108 0.258219 0.18191 
501 1 0.503614 0.198701 0.099124 0.401251 -3.35157 -0.00797216 0.180315 0.136663 
498 1 0.449977 0.251307 0.100406 0.551787 -3.30556 0.434606 -0.323084 0.178432 
103 1 0.553867 0.202156 0.0474194 1.23575 -3.24726 -0.611821 -0.0655449 0.509249 
143 1 0.550559 0.303143 0.048038 0.700955 -3.23866 -0.0336761 -0.770999 -0.452253 
108 1 0.601715 0.250591 0.0490091 0.320852 -3.24909 -0.0374101 0.347955 0.128703 
145 1 0.599442 0.300884 -0.00254669 0.392485 -3.36395 0.0549381 0.0829025 -0.101427 
505 1 0.598579 0.199197 0.104581 1.67702 -3.32527 0.258427 -0.00911252 -0.35207 
502 1 0.554218 0.249168 0.100242 0.505938 -3.30166 -0.251495 -0.0875183 0.0927531 
112 1 0.703356 0.250857 0.047106 0.182376 -3.28451 0.245442 -0.0382543 0.216504 
110 1 0.754802 0.248706 -0.00352576 0.578475 -3.26593 -0.221113 0.336359 0.172673 
147 1 0.652447 0.298938 0.0453436 0.486735 -3.32471 -0.190414 0.328123 0.135961 
506 1 0.650441 0.255207 0.0961495 1.83061 -3.30748 0.00546921 -0.614587 0.118808 
151 1 0.755146 0.299222 0.0437538 0.724675 -3.32583 -0.0845364 0.224322 0.227965 
509 1 0.70281 0.197827 0.0974693 0.581826 -3.32032 0.193679 0.220387 -0.039183 
106 1 0.652747 0.250798 -0.000274235 0.224386 -3.30063 0.0349345 -0.0470966 -0.429916 
116 1 0.803455 0.25259 0.0456954 0.683296 -3.29171 0.540086 -0.308885 0.244116 
114 1 0.850129 0.248783 -0.00679455 6.36131 -3.2421 0.366142 0.793066 0.119053 
117 1 0.899959 0.203147 -0.00500742 1.38828 -3.2888 0.221795 -0.441051 0.215061 
119 1 0.948722 0.201011 0.0487317 0.310919 -3.34536 0.030576 -0.0801802 0.00871452 
120 1 0.894032 0.247333 0.0489975 6.35694 -3.28491 0.140442 0.456081 0.102356 
159 1 0.948015 0.294704 0.0470336 1.92091 -3.15594 -0.0403718 0.649465 0.477755 
118 1 0.941013 0.255828 0.000653223 5.71371 -3.20401 0.413117 -0.679028 -0.427477 
121 1 1.00404 0.293944 0.00607499 7.31982 -3.2639 0.00570758 0.911355 -0.721 
128 1 0.104679 0.352367 0.0505982 1.586 -3.2972 -0.927245 -0.319007 -0.269372 
122 1 0.0437484 0.352817 -1.22681e-05 6.4317 -3.32212 0.297684 -0.297939 0.00710282 
127 1 0.151182 0.298219 0.0513899 0.635145 -3.23796 -0.298868 0.254946 -0.700277 
132 1 0.198889 0.348613 0.0490703 0.164337 -3.30501 0.0915742 0.235153 -0.12797 
167 1 0.152128 0.398847 0.0502842 0.385751 -3.25641 0.0532629 0.648338 -0.241236 
529 1 0.199558 0.300679 0.0982777 0.169613 -3.23972 0.399587 -0.0977648 0.177437 
526 1 0.149633 0.346633 0.100476 0.563755 -3.19945 0.517665 0.712531 0.249797 
135 1 0.34938 0.300152 0.050318 0.405022 -3.36709 -0.0755674 -0.182489 0.0938726 
133 1 0.300814 0.297157 0.000750834 0.589947 -3.21917 -0.264636 -0.091801 0.257952 
131 1 0.249699 0.301343 0.0489595 0.337576 -3.31414 0.252842 -0.333637 -0.0856452 
136 1 0.299091 0.35539 0.0508255 2.12579 -3.2592 0.526157 -0.708025 -0.202803 
534 1 0.350847 0.347888 0.101074 0.712369 -3.26461 -0.670746 0.243964 -0.202989 
139 1 0.446556 0.299132 0.0503438 0.921065 -3.31444 0.652277 0.229486 -0.289229 
140 1 0.397164 0.34888 0.0515379 0.742373 -3.31159 0.191968 0.143972 -0.363646 
144 1 0.502724 0.348726 0.0479745 0.619449 -3.29825 -0.555474 0.132798 0.211774 
537 1 0.39988 0.299947 0.0995223 0.238562 -3.19872 -0.199238 -0.175277 -0.0782518 
538 1 0.452238 0.344897 0.100731 1.23522 -3.25759 -0.053523 0.2963 -0.369629 
148 1 0.598602 0.349253 0.0427519 1.62789 -3.22414 0.460063 -0.00295071 0.381191 
542 1 0.55733 0.352076 0.0998254 2.32258 -3.25166 -0.78576 0.150314 -0.219039 
183 1 0.552327 0.396339 0.048822 1.08551 -3.31985 -0.524239 0.766548 0.111324 
545 1 0.596493 0.301024 0.0983488 6.30473 -3.22445 0.555286 -0.285762 -0.225484 
541 1 0.507179 0.298774 0.0987714 1.16214 -3.33701 -0.289066 0.0849219 0.101431 
185 1 0.599027 0.401274 -0.002228 0.777779 -3.26497 -0.206026 -0.312387 0.220797 
152 1 0.703797 0.34749 0.0476079 0.841913 -3.274 -0.00490581 -0.123017 -0.280092 
146 1 0.651896 0.352828 -0.000200076 1.15613 -3.29177 0.204302 -0.320963 -0.155024 
187 1 0.655344 0.397629 0.0455679 5.90525 -3.28353 -0.323803 -0.197292 -0.0116698 
546 1 0.650345 0.345584 0.0942496 6.03373 -3.28566 -0.102625 0.210125 -0.0251919 
149 1 0.703186 0.298419 -0.00422914 0.614435 -3.24879 0.269994 0.120492 0.609154 
155 1 0.849317 0.304309 0.0497697 1.59852 -3.25699 0.200852 -0.548464 -0.199443 
156 1 0.802192 0.350623 0.0499354 0.456644 -3.24418 -0.627062 0.338688 0.203645 
195 1 0.853913 0.401822 0.0515037 0.637477 -3.35213 -0.237677 -0.472756 -0.0264798 
554 1 0.855435 0.352029 0.0982693 1.0679 -3.29923 -0.508777 -0.282149 0.0683118 
153 1 0.805818 0.301659 -0.00758206 1.99405 -3.34459 -0.115323 -0.205774 0.237833 
150 1 0.749789 0.348894 -0.0039551 1.14995 -3.28228 0.23155 -0.064228 0.281968 
193 1 0.795529 0.397498 0.00141434 1.75116 -3.29722 0.15174 0.306032 0.11341 
124 1 1.00133 0.345499 0.052448 1.59503 -3.27369 -0.251277 -0.0286578 -0.0243981 
160 1 0.906709 0.346573 0.0509827 2.2887 -3.22367 -0.407379 0.674828 -0.419855 
157 1 0.896907 0.30558 -0.00151914 5.26291 -3.20375 -0.4356 -0.341426 0.479337 
197 1 0.908319 0.402787 0.00461892 6.74353 -3.33962 -0.466013 -0.165304 -0.456471 
163 1 0.0404986 0.397996 0.0486939 2.81686 -3.30566 0.727892 0.0333016 0.232431 
165 1 0.100237 0.398999 0.000190231 0.631567 -3.32093 -0.211519 0.0382133 0.251751 
168 1 0.0959605 0.447137 0.0521341 0.92637 -3.30766 0.54881 -0.514899 -0.378143 
164 1 0.00103794 0.451614 0.0491285 0.871617 -3.2775 -0.263994 0.180959 0.0979552 
161 1 -0.00871329 0.401699 -0.000463843 5.97503 -3.21477 0.287984 0.426708 -0.00642095 
162 1 0.0471623 0.445487 -0.00150201 1.41156 -3.25308 -0.135083 0.0961068 0.0922188 
171 1 0.248515 0.401521 0.0463303 0.8567 -3.25527 -0.399 -0.251445 0.328407 
172 1 0.203215 0.450887 0.0506524 0.798954 -3.3236 -0.709691 0.0275452 0.126079 
166 1 0.149788 0.448854 -0.00281509 0.810039 -3.3185 -0.270019 0.194434 0.691643 
569 1 0.198946 0.398501 0.0989131 0.330825 -3.37526 0.19696 0.134643 0.223413 
173 1 0.300805 0.397639 0.00254858 1.30988 -3.2886 -0.0123145 0.365156 -0.636713 
175 1 0.351329 0.402722 0.0492396 1.49807 -3.2362 0.0266036 -0.455208 0.0488335 
176 1 0.298579 0.448921 0.0501596 0.316165 -3.31015 0.183956 0.0252193 -0.127717 
570 1 0.248957 0.451182 0.103441 1.14351 -3.29807 0.115639 -0.249424 -0.441618 
573 1 0.29929 0.401149 0.0995238 0.42106 -3.33802 -0.0751899 -0.245432 -0.0245107 
170 1 0.24723 0.452394 8.50888e-05 0.794652 -3.31263 0.364877 -0.487364 -0.0836761 
179 1 0.449943 0.396536 0.0462873 0.746882 -3.30464 -0.315453 0.124673 0.00926989 
180 1 0.398633 0.450396 0.0481771 0.774204 -3.24904 0.224214 0.100533 0.303657 
578 1 0.449082 0.445018 0.0976613 1.06154 -3.3182 -0.403445 0.760313 0.126959 
621 1 0.505207 0.494248 0.100082 2.04569 -3.20844 -0.788722 0.35443 -0.335508 
219 1 0.451322 0.501342 0.0542423 1.32257 -3.24954 -0.293017 -0.559602 -0.0284357 
577 1 0.401023 0.394386 0.0992134 1.11812 -3.29051 0.205947 0.297766 -0.114821 
585 1 0.607851 0.397592 0.0965803 6.83663 -3.30052 -0.230172 0.106111 0.187079 
184 1 0.500678 0.448547 0.0484935 0.63753 -3.33542 -0.292356 -0.317988 0.0482255 
188 1 0.603097 0.448107 0.05681 2.96899 -3.21742 -0.17256 -0.377349 -1.09227 
582 1 0.551138 0.448171 0.0999019 0.852326 -3.2469 0.0542973 -0.749024 0.0810849 
191 1 0.749086 0.398887 0.0533175 0.981908 -3.29664 -0.194737 0.397396 -0.643809 
192 1 0.696249 0.447247 0.054745 1.84518 -3.30827 0.137281 0.326075 -0.152537 
227 1 0.648721 0.497247 0.0511111 0.632063 -3.24719 0.093891 0.286435 0.00471124 
231 1 0.747608 0.495317 0.0493039 6.46666 -3.25023 0.0854276 0.0562886 0.283829 
586 1 0.64321 0.453517 0.107484 7.3515 -3.2325 0.727217 -0.511587 0.0835726 
189 1 0.705353 0.402343 -0.00691157 7.31631 -3.3131 -0.310279 -0.301394 0.675377 
196 1 0.801519 0.450479 0.0528838 0.808302 -3.18507 -0.344447 -0.392141 -0.18598 
597 1 0.901689 0.400577 0.103154 0.709275 -3.26067 -0.17577 0.0903853 0.26337 
201 1 0.999213 0.501704 0.00212624 0.328429 -3.30346 0.34962 -0.0922899 0.173214 
199 1 0.947671 0.404956 0.0565839 2.91647 -3.2169 0.670661 -0.584678 -0.520388 
200 1 0.898007 0.450965 0.0512993 0.628893 -3.27282 0.082771 0.782261 -0.0669151 
239 1 0.949972 0.500068 0.0533417 0.657648 -3.32341 -0.156197 0.0652688 -0.0825147 
237 1 0.895818 0.501257 0.00358237 0.366698 -3.35915 -0.189424 0.036322 0.217192 
205 1 0.0941735 0.492496 0.000311504 2.88386 -3.26277 0.602989 0.417399 -0.104648 
203 1 0.0558875 0.498626 0.0529064 1.79842 -3.19978 -0.917335 0.461025 -0.306578 
208 1 0.101821 0.549471 0.057481 2.1832 -3.18955 -0.450465 0.0612099 -0.867109 
602 1 0.0508476 0.550738 0.103238 0.244053 -3.29094 -0.127609 0.269395 0.0056161 
243 1 0.0510051 0.597504 0.0541689 0.957689 -3.21714 -0.519125 -0.28106 -0.276567 
605 1 0.0991247 0.499306 0.102114 0.433365 -3.1952 -0.159063 0.0576148 0.386847 
645 1 0.100413 0.600598 0.100491 0.226144 -3.22407 -0.0197122 -0.58102 0.451758 
202 1 0.0514226 0.547016 0.00411578 5.83629 -3.34813 -0.119639 0.0246865 0.072325 
207 1 0.146569 0.499079 0.0521463 0.725173 -3.35331 0.162138 -0.28055 -0.472849 
209 1 0.19764 0.500233 0.000492952 0.452522 -3.28038 -0.348858 -0.334689 0.355786 
212 1 0.197682 0.549918 0.0457222 1.1764 -3.26842 -0.249327 -0.464381 0.324071 
210 1 0.246707 0.545925 0.000453298 0.7786 -3.21196 0.24905 0.293082 0.282341 
606 1 0.151988 0.547742 0.0995467 0.498211 -3.24785 0.383717 0.208998 0.386955 
215 1 0.349824 0.499275 0.050321 0.411857 -3.23351 0.266858 0.0110021 -0.478128 
211 1 0.253163 0.498989 0.04917 0.664179 -3.28498 -0.308744 0.157285 0.00239319 
216 1 0.302604 0.547566 0.0505322 0.470517 -3.32427 -0.160256 0.322369 -0.0836786 
255 1 0.352319 0.598326 0.0511523 0.581888 -3.34048 0.071599 0.163241 -0.222333 
613 1 0.303623 0.498665 0.0974808 0.692917 -3.32163 -0.206841 0.116946 0.686767 
614 1 0.355504 0.551592 0.0998915 1.00346 -3.30826 -0.465062 -0.234393 0.135442 
653 1 0.298177 0.600248 0.0947758 1.15414 -3.30611 0.356369 -0.30372 0.720715 
220 1 0.404212 0.551772 0.0514944 0.835153 -3.26337 -0.501398 -0.246668 -0.0874509 
618 1 0.453004 0.545127 0.100156 1.51883 -3.29412 -0.166271 0.144637 0.361517 
224 1 0.50432 0.546547 0.0539829 1.29407 -3.19839 -0.348287 -0.212378 -0.317579 
223 1 0.55172 0.496032 0.0487856 1.19216 -3.22601 -0.287209 0.261605 0.0303598 
622 1 0.547627 0.546839 0.10372 0.895454 -3.27762 0.198986 0.356748 -0.0413023 
228 1 0.600978 0.55182 0.0504194 1.12782 -3.32919 -0.465845 -0.537694 -0.147378 
665 1 0.598836 0.596928 0.103363 0.324576 -3.31725 0.107396 0.0163588 0.0370988 
625 1 0.5976 0.499411 0.0982054 1.23549 -3.21915 -0.21123 0.469367 0.428203 
232 1 0.701863 0.545657 0.0561533 6.25149 -3.26056 -0.0459329 0.59467 -0.415105 
267 1 0.650105 0.597451 0.0541709 0.455603 -3.31338 0.542405 0.0818352 -0.0545936 
630 1 0.749638 0.555786 0.104898 1.65907 -3.23806 -0.153015 -0.0731259 -0.284156 
633 1 0.79388 0.501715 0.102621 0.863285 -3.2264 0.304227 0.109311 -0.472375 
235 1 0.840846 0.50343 0.0538527 1.45769 -3.28532 0.638211 0.0908963 -0.343431 
236 1 0.791382 0.55182 0.0526824 1.34388 -3.31473 0.345957 0.0249945 0.0372226 
634 1 0.847073 0.549929 0.101961 0.606543 -3.32 0.256167 0.266037 -0.00111454 
275 1 0.847329 0.604477 0.0516385 0.586127 -3.27883 -0.0732409 0.0169222 -0.366287 
234 1 0.846626 0.552245 0.00265737 0.149028 -3.30491 0.175538 0.01214 0.097221 
204 1 0.9951 0.551974 0.0514415 1.17844 -3.32445 0.520134 -0.181768 0.444742 
240 1 0.896034 0.554952 0.0513682 0.433871 -3.2856 0.0564133 -0.254467 0.360896 
248 1 0.0971867 0.646826 0.0522705 6.03693 -3.24676 0.352891 0.176177 -0.79532 
244 1 0.00838836 0.651045 0.0469552 2.08162 -3.27213 -0.616375 0.0812097 0.311353 
247 1 0.149796 0.596942 0.051355 0.689581 -3.25181 -0.443836 0.365118 -0.147074 
252 1 0.198481 0.646383 0.0491648 0.2526 -3.27915 -0.188182 0.391818 -0.266565 
287 1 0.146306 0.697871 0.0490874 0.829609 -3.30072 0.078184 -0.140571 -0.108217 
649 1 0.199751 0.598739 0.099249 0.306852 -3.26944 -0.240539 -0.207449 0.264315 
251 1 0.248393 0.598374 0.0503213 0.470162 -3.16066 -0.572174 -0.216745 0.00126181 
256 1 0.297754 0.65017 0.0482976 1.06899 -3.27876 0.392837 -0.316768 0.426922 
291 1 0.253248 0.699543 0.0478951 0.947412 -3.28301 -0.166296 -0.106837 0.0441727 
654 1 0.356363 0.645624 0.0981446 1.34021 -3.30972 -0.420867 0.12973 -0.0719374 
650 1 0.245641 0.645965 0.0958246 1.39494 -3.20614 0.821329 0.465194 0.373669 
693 1 0.306542 0.695408 0.0976284 1.91235 -3.26452 -0.593254 -0.146678 -0.0760514 
254 1 0.349724 0.646293 0.00420627 1.36902 -3.34101 0.281126 0.173258 -0.206109 
259 1 0.45547 0.596803 0.0530125 1.00152 -3.29775 -0.185239 0.291283 0.0351036 
661 1 0.501417 0.602444 0.103919 1.44016 -3.19591 -0.468257 -0.939683 -0.0533303 
657 1 0.406269 0.598008 0.104028 0.91085 -3.23382 0.328867 0.00501888 -0.591077 
260 1 0.408389 0.650298 0.0524911 6.79086 -3.23416 -0.684379 -0.804943 0.199124 
299 1 0.445595 0.700727 0.0460984 6.19558 -3.16687 1.28451 0.503873 0.749184 
697 1 0.402786 0.698488 0.099836 0.473821 -3.27127 -0.482103 -0.162517 -0.0369796 
658 1 0.453362 0.648345 0.105442 1.48591 -3.1882 -0.376144 0.102074 -0.328648 
297 1 0.400754 0.702079 0.00167355 0.683624 -3.23457 -0.610234 -0.341908 -1.03808 
263 1 0.54452 0.596413 0.0531066 1.28849 -3.29299 0.384877 0.616535 -0.163424 
264 1 0.496068 0.652001 0.052994 5.59166 -3.27793 -0.0591319 -0.191909 -0.0230716 
268 1 0.60193 0.64629 0.0512494 0.848027 -3.26544 -0.257229 0.0789396 0.105767 
662 1 0.549686 0.646807 0.100821 0.7233 -3.25326 0.800109 0.530668 -0.172227 
705 1 0.604986 0.699886 0.101584 1.402 -3.28707 -0.172196 0.145404 -0.0559417 
271 1 0.747015 0.602645 0.0535171 0.651442 -3.24854 0.176399 -0.222124 0.57118 
272 1 0.698525 0.650096 0.0562302 0.711096 -3.25797 -0.0258078 -0.0523081 -0.0537721 
307 1 0.651476 0.69909 0.0507886 0.639538 -3.29009 -0.247861 0.202362 0.376709 
309 1 0.696088 0.702191 0.00196542 0.775853 -3.22258 0.322857 -0.40743 -0.460407 
270 1 0.742537 0.651696 0.00296866 1.04548 -3.27039 0.224137 0.202504 -0.608182 
276 1 0.78909 0.655869 0.0491613 2.3612 -3.28335 0.741677 -0.164871 0.31776 
713 1 0.79487 0.705802 0.0981802 1.64363 -3.29121 -0.043544 0.0510069 0.0381779 
279 1 0.949876 0.60563 0.0492534 0.814147 -3.28184 -0.266589 -0.180368 0.463553 
280 1 0.896847 0.652361 0.0508897 0.407072 -3.32599 0.213181 0.0269436 -0.0756856 
319 1 0.951673 0.700073 0.0530325 0.686085 -3.3233 -0.0749553 0.0427718 -0.681223 
678 1 0.953938 0.651002 0.0965191 1.08928 -3.32457 -0.198872 0.0241544 0.250655 
717 1 0.899723 0.701753 0.0981594 0.271791 -3.32204 -0.28899 -0.229665 0.222625 
277 1 0.900096 0.603992 -6.58393e-05 0.510596 -3.29041 -0.472034 -0.034061 0.298273 
283 1 0.058464 0.703061 0.0485517 1.57726 -3.28939 -0.383756 -0.216923 -0.10427 
288 1 0.102875 0.754153 0.0492841 1.33697 -3.20501 0.22493 -0.182018 0.253925 
323 1 0.0464482 0.799595 0.0483481 1.4117 -3.28217 0.75507 0.716073 0.236611 
282 1 0.0559261 0.749967 0.00178222 1.73798 -3.26323 -0.480896 -0.0199223 -0.387088 
289 1 0.201094 0.699285 -0.000703468 0.321537 -3.29646 -0.12112 -0.5315 0.0622166 
292 1 0.196045 0.744751 0.0481282 1.78193 -3.26101 0.505001 0.239267 0.252289 
729 1 0.201211 0.798037 0.0986145 6.80503 -3.27544 0.276771 0.175529 -0.555481 
327 1 0.154035 0.797091 0.0446984 1.17707 -3.30304 0.181521 0.688003 0.263656 
331 1 0.250402 0.796009 0.0477285 0.628432 -3.34648 0.225315 0.0711365 0.193758 
689 1 0.20134 0.695881 0.0938287 1.02282 -3.32197 -0.321112 0.328133 0.412276 
295 1 0.352369 0.697564 0.0497559 0.376218 -3.30828 0.0797738 0.00496893 -0.2738 
690 1 0.256595 0.746083 0.0950158 2.03529 -3.25873 -0.729266 0.0690063 0.140144 
296 1 0.303922 0.748428 0.0502824 0.61019 -3.20208 0.118667 -0.0876706 -0.542384 
335 1 0.346366 0.799915 0.047005 1.0172 -3.26482 0.263229 -0.0685309 0.0255291 
733 1 0.302872 0.800018 0.099791 0.905603 -3.30553 -0.537053 0.150824 -0.269483 
290 1 0.24976 0.745236 0.00065071 0.805943 -3.28863 0.61335 0.294901 -0.0925302 
300 1 0.400708 0.750949 0.0485636 0.569071 -3.24836 -0.482192 -0.0613061 0.0236453 
698 1 0.447466 0.748642 0.0982416 0.630266 -3.27095 0.439036 -0.131077 0.254668 
339 1 0.452588 0.795969 0.0473948 0.750295 -3.22788 -0.126955 0.198412 0.172868 
304 1 0.502169 0.746003 0.0511313 0.875316 -3.36921 0.007607 -0.298117 -0.0176675 
303 1 0.552734 0.693767 0.0529697 1.94841 -3.27254 -0.268551 0.445056 0.17221 
701 1 0.501461 0.698531 0.1018 0.408658 -3.296 0.0725396 0.277678 -0.44245 
308 1 0.593968 0.749323 0.0482901 1.59616 -3.32218 0.512859 -0.050211 0.327254 
702 1 0.552103 0.746962 0.102624 0.314232 -3.26514 0.0622571 0.0511118 -0.348452 
343 1 0.545863 0.797672 0.0490474 0.249464 -3.29406 0.163272 0.272309 0.136732 
311 1 0.741558 0.704903 0.0505733 5.37552 -3.2431 -0.221075 -0.0520697 0.294002 
312 1 0.694914 0.755623 0.0466593 1.75169 -3.22649 0.73973 -0.142932 0.443945 
306 1 0.648532 0.748811 0.00201512 0.701384 -3.16642 -1.04712 0.3373 -0.0662517 
347 1 0.646424 0.802223 0.0522844 0.741473 -3.26689 -0.700234 0.0570557 -0.629072 
706 1 0.653217 0.75215 0.0999865 6.13111 -3.3348 -0.0986436 -0.231782 -0.126645 
315 1 0.849154 0.700503 0.0469908 1.12378 -3.27189 -0.362844 -0.068828 0.626102 
316 1 0.795509 0.749203 0.0494051 0.8955 -3.30478 0.145852 0.810662 0.469007 
714 1 0.850645 0.752619 0.0966788 0.797379 -3.33703 -0.449178 -0.167664 0.521277 
355 1 0.851657 0.798566 0.0493568 0.549102 -3.34331 -0.425767 0.318812 0.0961615 
314 1 0.849514 0.74965 0.00243719 0.364704 -3.30365 0.243144 0.265097 -0.235342 
313 1 0.793557 0.706154 0.00475213 1.97926 -3.23771 0.297591 -0.945375 -0.733715 
353 1 0.800027 0.800445 -0.000462064 0.18184 -3.30683 0.124547 0.319957 -0.021189 
284 1 1.00214 0.753059 0.0496844 0.528314 -3.25616 -0.309241 -0.785969 0.0775017 
320 1 0.898879 0.748377 0.0509096 0.421465 -3.23638 0.449493 0.214551 -0.114481 
757 1 0.900309 0.801961 0.0987785 0.43715 -3.31385 0.112494 -0.0574837 0.139052 
718 1 0.95218 0.749248 0.0992064 0.335142 -3.34263 -0.0495388 0.265136 0.00964529 
328 1 0.102965 0.847188 0.0476388 0.732594 -3.35797 -0.0603881 0.0503506 0.188169 
324 1 0.000669939 0.852908 0.0449647 0.817994 -3.35322 0.172078 0.106134 0.30104 
363 1 0.0544248 0.90346 0.0447312 1.09643 -3.32625 -0.116329 -0.297052 0.172326 
332 1 0.2045 0.847239 0.0440675 1.43463 -3.29484 -0.439403 -0.0447627 0.354856 
371 1 0.248942 0.900046 0.045738 0.933834 -3.32284 0.0249918 0.158672 0.0685582 
329 1 0.205937 0.796238 -0.00433212 1.37953 -3.25561 -0.504626 0.337102 0.499123 
326 1 0.149204 0.848367 -0.00292014 0.751592 -3.24577 0.327882 -0.431355 0.329149 
369 1 0.198203 0.896646 -0.00388563 6.46992 -3.28574 0.607483 0.338078 0.136248 
336 1 0.302057 0.850887 0.0475098 0.420348 -3.31735 -0.170226 -0.0691581 0.342695 
734 1 0.354049 0.84845 0.101571 2.19303 -3.24586 -0.469408 0.229771 -0.329251 
334 1 0.351298 0.849431 -0.00385677 0.452739 -3.27654 -0.0640508 -0.136698 0.196082 
330 1 0.25499 0.849748 -0.00171234 0.666102 -3.25657 -0.191429 0.0770508 -0.208702 
340 1 0.393594 0.849859 0.0474683 1.87426 -3.2807 0.823234 -0.213016 0.135088 
344 1 0.495957 0.84594 0.0511744 0.839 -3.24681 0.309074 0.560832 -0.259945 
348 1 0.592733 0.853552 0.0512075 1.19718 -3.26601 0.212601 -0.331582 -0.232869 
742 1 0.544817 0.847505 0.0989196 0.448392 -3.25346 0.0363743 0.0416151 0.250697 
342 1 0.546719 0.848115 -0.000193273 0.313522 -3.32526 -0.183289 0.190547 0.0980507 
351 1 0.749254 0.804994 0.0453275 1.58293 -3.22676 -0.105833 -0.895273 0.517842 
352 1 0.697111 0.850801 0.0489815 0.462772 -3.22529 -0.0742248 0.109411 0.201351 
346 1 0.644184 0.853469 0.004389 1.2876 -3.32503 0.125452 -0.572549 -0.390509 
387 1 0.652229 0.90127 0.0571356 3.24263 -3.20526 -0.897955 -0.522327 -0.785788 
349 1 0.697055 0.801309 -0.00025543 0.461515 -3.30075 -0.244427 0.275231 -0.0609683 
389 1 0.695592 0.899512 0.000729281 0.726013 -3.27661 0.28802 0.111815 0.0333145 
356 1 0.797856 0.848671 0.0482796 0.630993 -3.23914 0.94424 0.198809 0.195735 
395 1 0.850043 0.900428 0.0482273 0.388587 -3.21346 0.26117 0.295558 -0.000773102 
350 1 0.747261 0.851551 0.00215412 0.551736 -3.26869 0.276081 0.020995 -0.848919 
354 1 0.851053 0.85085 0.000257441 0.323693 -3.34321 0.0121888 -0.18593 -0.177681 
359 1 0.95011 0.800412 0.0500167 0.22924 -3.3149 0.120667 0.278098 0.411246 
360 1 0.897314 0.853483 0.0507761 0.774218 -3.28735 0.678725 -0.375051 -0.133308 
761 1 1.00684 0.900678 0.095492 0.855272 -3.28151 -0.28503 -0.119651 -0.198289 
397 1 0.902999 0.903199 -0.00362943 1.01583 -3.19209 -0.362716 0.116617 0.654169 
399 1 0.95172 0.906647 0.0497364 0.825626 -3.29858 -0.277318 -0.641669 -0.105835 
357 1 0.903478 0.800811 0.00211224 0.719768 -3.30055 -0.47475 0.170735 -0.33465 
405 1 0.100714 1.00182 0.103859 0.815347 -3.25886 -0.346682 0.185877 0.0424233 
765 1 0.10361 0.892673 0.0942166 8.29054 -3.25046 -0.103558 0.639913 0.336029 
368 1 0.104897 0.952839 0.0477442 0.879922 -3.25297 0.563089 -0.362818 -0.103103 
762 1 0.058408 0.948884 0.0988153 5.75194 -3.28586 0.272641 -0.151018 -0.322316 
1 1 0.00369732 0.998036 0.000438089 1.09173 -3.26101 0.336383 0.659881 0.03874 
365 1 0.107542 0.899333 -0.000607054 0.853669 -3.27089 -0.226731 0.457848 0.181503 
367 1 0.156349 0.902323 0.0500118 1.72132 -3.27802 -0.190651 -0.333606 -0.173605 
372 1 0.198497 0.954564 0.0524948 6.42858 -3.25973 -0.25979 -0.248058 -0.0049345 
766 1 0.142954 0.952947 0.103282 6.83232 -3.29489 0.574245 -0.446064 -0.160588 
375 1 0.350544 0.901 0.0453601 0.778109 -3.27839 -0.0675453 0.204553 0.261888 
376 1 0.302361 0.95059 0.0488088 0.432238 -3.31437 0.249336 -0.131358 0.228433 
774 1 0.348686 0.948915 0.104994 1.91151 -3.19897 -0.467981 0.0854692 -0.602868 
373 1 0.30171 0.902841 -0.00398943 0.617334 -3.23149 -0.0712774 -0.10237 0.786774 
379 1 0.447991 0.901211 0.049822 0.46204 -3.33038 0.0422137 -0.233565 0.0948615 