ITEM: TIMESTEP
11250
ITEM: NUMBER OF ATOMS
4000
ITEM: BOX BOUNDS pp pp pp
2.2114960300962023e+00 3.8288503969903225e+01
-1.3351465395367776e+00 4.1835146539535849e+01
-1.2586472697172117e+00 4.1758647269717230e+01
ITEM: ATOMS id type xs ys zs c_csym c_peratom fx fy fz 
8 1 0.0760751 0.0680363 0.04685 6.89917 -3.30932 -0.0500318 -0.24474 0.385198 
4 1 0.00481209 0.0451386 0.0381855 6.68479 -3.25922 0.3473 0.418844 0.0314734 
405 1 0.0748439 0.0184333 0.0993223 6.04957 -3.23541 -0.696657 0.435574 0.400657 
12 1 0.183304 0.0620616 0.0525712 0.412151 -3.26187 -0.78744 0.220599 0.227316 
11 1 0.229631 0.0148218 0.0547477 1.09235 -3.20619 0.67974 -0.521661 -0.120089 
7 1 0.124638 0.0178632 0.0569333 7.56934 -3.18549 0.67594 0.283247 -0.729866 
406 1 0.131647 0.0654479 0.1022 0.392443 -3.37987 -0.0277642 0.228405 -0.292517 
409 1 0.18038 0.014427 0.101467 0.30951 -3.31253 -0.306963 0.0476003 0.379955 
10 1 0.233789 0.0585005 0.00646898 0.527111 -3.25977 0.0518478 -0.0406171 -0.597929 
6 1 0.128985 0.0549964 0.00463219 7.56966 -3.30304 0.232431 0.481062 -0.199742 
9 1 0.182585 0.00945697 0.00601778 7.29979 -3.20509 -0.464391 0.816074 -0.85996 
16 1 0.289256 0.0577437 0.0508998 0.262003 -3.30762 0.218594 0.373912 0.408527 
20 1 0.396527 0.0562539 0.0482668 0.456407 -3.30773 0.137071 -0.0527823 -0.0835034 
24 1 0.504496 0.0525814 0.0497938 0.749364 -3.3007 -0.362235 0.141592 -0.122109 
19 1 0.449534 0.00710186 0.051722 0.702054 -3.33301 -0.227589 -0.485093 -0.662826 
461 1 0.499945 0.0992762 0.096472 1.23318 -3.29028 0.428392 0.160623 -0.225235 
21 1 0.503193 0.996863 0.00258198 2.58113 -3.18212 -0.623994 1.03357 -0.287464 
28 1 0.609549 0.0466412 0.0486736 0.661745 -3.27899 -0.159525 0.216783 0.272361 
25 1 0.599252 0.999465 0.0047284 1.91839 -3.3116 0.60023 -0.0342897 -0.660276 
23 1 0.548719 1.00246 0.0512565 0.965351 -3.24633 0.58857 0.0468117 0.118594 
422 1 0.55806 0.0523267 0.0961659 0.416032 -3.32233 -0.0262375 0.0629832 -0.0477222 
465 1 0.614696 0.100226 0.0970424 1.03629 -3.3201 -0.210174 -0.0208947 -0.362075 
32 1 0.714627 0.0406327 0.0458459 6.79797 -3.27163 0.445383 0.268893 0.95184 
67 1 0.667138 0.0948068 0.0468283 6.09067 -3.2985 0.284099 0.0357726 0.662131 
27 1 0.658874 -0.000411247 0.0512812 0.522043 -3.27613 -0.012053 -0.294995 -0.127039 
469 1 0.723516 0.0937346 0.101414 7.50853 -3.26221 -0.529042 -0.518699 -0.316406 
429 1 0.712965 0.994672 0.0999414 0.276329 -3.36832 -0.0518198 0.216995 -0.0386723 
26 1 0.66476 0.0466352 0.999155 7.01759 -3.30275 -0.449522 -0.166497 -0.126802 
36 1 0.797957 0.0531893 0.0356886 6.6468 -3.26496 -0.303361 0.33261 0.531339 
35 1 0.847682 0.00450312 0.0358802 7.29757 -3.26824 -0.243594 0.21515 0.331298 
434 1 0.850291 0.0522329 0.0830905 7.55864 -3.29435 0.084161 -0.181952 -0.0793944 
401 1 0.00378267 0.993732 0.0858121 6.36508 -3.24736 0.262891 0.0884256 -0.146527 
40 1 0.908927 0.0467983 0.0366442 1.67336 -3.28661 -0.0865996 -0.0353479 0.0225388 
39 1 0.962754 0.997077 0.0329593 4.21003 -3.27344 -0.63895 -0.422682 0.147558 
79 1 0.954078 0.100527 0.0376206 6.92318 -3.32684 0.302862 -0.262158 -0.0103806 
437 1 0.901466 -1.78965e-05 0.0864005 6.79375 -3.27795 -0.364691 0.00665443 -0.0804436 
477 1 0.905107 0.0962316 0.0887138 5.94531 -3.2536 -0.0890196 -0.0407908 -0.505013 
438 1 0.952327 0.042494 0.0875083 6.01442 -3.28726 0.575557 0.592731 0.31026 
43 1 0.0314232 0.119613 0.0528709 7.14309 -3.25704 -0.414549 -0.376703 -0.270017 
48 1 0.0821586 0.166268 0.0547674 0.977186 -3.24051 0.294261 -0.0630416 0.286119 
45 1 0.0817489 0.111051 0.000477452 6.89046 -3.30941 0.0326876 0.118995 -0.173711 
42 1 0.037033 0.163061 0.00633363 7.00007 -3.24321 -0.304126 -0.0428035 -0.540743 
47 1 0.133792 0.115333 0.0492688 1.15854 -3.27701 0.0466419 -0.49412 0.59712 
52 1 0.194311 0.160753 0.0557117 1.49402 -3.33662 -0.228825 0.114289 -0.197693 
49 1 0.184627 0.106099 0.00404745 0.699061 -3.29732 -0.0210634 0.335266 -0.10301 
51 1 0.235521 0.106976 0.052511 0.911488 -3.31984 0.516912 0.388782 0.134459 
50 1 0.241449 0.159503 1.00369 0.722549 -3.29528 -0.05543 -0.612199 0.0555006 
46 1 0.136645 0.16057 0.00879821 1.21621 -3.2934 -0.161683 0.236689 -0.523715 
55 1 0.347493 0.106832 0.0516881 0.600924 -3.3506 -0.28275 -0.0895988 -0.274402 
56 1 0.294187 0.156454 0.0485081 1.02809 -3.28379 0.0680824 -0.392198 0.231713 
95 1 0.350129 0.202466 0.0499531 0.396119 -3.33841 0.107365 0.0263369 0.146628 
453 1 0.296772 0.105012 0.100493 0.953556 -3.27775 -0.255769 -0.168086 -0.780272 
450 1 0.249977 0.16067 0.0984845 1.78278 -3.33854 -0.393353 -0.23133 0.313032 
454 1 0.343591 0.152949 0.0989005 2.0374 -3.274 0.73249 0.280805 -0.601322 
493 1 0.302045 0.205424 0.102723 1.39792 -3.29377 -0.549666 0.119024 -0.524024 
59 1 0.451027 0.103673 0.0462276 0.694075 -3.32261 0.410968 -0.322796 0.0806275 
60 1 0.405493 0.153351 0.0517061 1.01755 -3.30963 -0.71695 -0.0159377 -0.260355 
97 1 0.405379 0.205255 1.00312 1.55091 -3.31376 -0.289413 -0.577891 -0.402418 
99 1 0.454131 0.200365 0.049368 0.605784 -3.28428 0.358542 0.387801 -0.0351311 
457 1 0.400582 0.103276 0.0964829 0.411292 -3.24954 0.202882 0.321679 -0.525552 
458 1 0.457016 0.151064 0.0967771 0.950498 -3.3329 -0.134635 0.205641 -0.013863 
63 1 0.553572 0.100576 0.0492889 1.12071 -3.31905 0.198675 0.008455 0.0287799 
64 1 0.504418 0.153019 0.043168 1.37019 -3.31402 0.613877 -0.104704 0.354297 
68 1 0.609204 0.145604 0.0473228 7.30368 -3.30772 0.308022 -0.167384 0.449648 
462 1 0.553965 0.147435 0.0994779 2.16308 -3.32395 0.403566 -0.0880269 -0.768966 
501 1 0.510318 0.199554 0.0935904 0.645668 -3.33924 -0.246438 0.139302 -0.1285 
103 1 0.566565 0.197542 0.0459846 6.55979 -3.32294 -0.43034 -0.296362 -0.079811 
505 1 0.621629 0.191182 0.097188 7.35656 -3.29208 -0.647698 -0.109266 -0.432114 
71 1 0.745914 0.0982545 0.0371618 7.78931 -3.30713 0.0149142 0.442214 -0.0822113 
72 1 0.704063 0.151614 0.0336212 6.78105 -3.30486 -0.541023 0.26386 0.089609 
107 1 0.650755 0.202231 0.0332218 6.71932 -3.31725 0.0939712 -0.383229 0.347903 
509 1 0.711408 0.202601 0.0792321 8.40812 -3.2635 0.057514 -0.862635 0.278799 
466 1 0.673346 0.144758 0.0962665 6.66652 -3.32506 -0.0410303 -0.322905 -0.396226 
470 1 0.754089 0.148283 0.0818825 5.68822 -3.21192 -0.414142 0.35566 -0.0109979 
75 1 0.860557 0.0947462 0.0323679 2.97981 -3.29167 -0.38636 0.729465 0.556649 
76 1 0.804874 0.147599 0.0314134 0.771584 -3.28329 0.33041 -0.697611 -0.152522 
513 1 0.800186 0.196359 0.080531 6.8054 -3.28651 0.170776 0.387256 0.479627 
115 1 0.855428 0.197944 0.0347125 6.25997 -3.28191 -0.201697 -0.1042 0.184437 
473 1 0.798387 0.100073 0.086185 6.96474 -3.19321 0.121611 -0.183319 -0.403212 
474 1 0.849611 0.144323 0.0810964 8.32041 -3.31346 0.424072 0.216456 0.377961 
44 1 0.982856 0.168238 0.0521775 7.01044 -3.34649 -0.512394 -0.0664309 0.132288 
80 1 0.903493 0.148578 0.033453 7.02503 -3.30992 0.412956 0.0117178 0.34853 
478 1 0.926327 0.168088 0.0975117 7.20399 -3.30671 -0.0454241 -0.0555492 -0.447935 
83 1 0.0358116 0.215359 0.0553888 0.547199 -3.29506 -0.197366 -0.0186341 0.386394 
88 1 0.0913683 0.258867 0.0567188 0.42174 -3.34036 0.114369 0.355418 -0.0995254 
85 1 0.087265 0.211165 0.00687042 0.462937 -3.31248 0.00204073 0.190657 -0.191926 
87 1 0.141268 0.208301 0.0541821 0.594165 -3.2951 0.102247 0.179868 -0.149736 
91 1 0.249426 0.208587 0.0503641 0.693625 -3.3187 -0.341974 -0.195145 0.395748 
92 1 0.196938 0.25549 0.0528974 0.562814 -3.27324 -0.312614 0.168398 -0.191742 
86 1 0.143471 0.25664 0.00813461 0.549622 -3.32469 -0.169079 0.145817 -0.128934 
489 1 0.190389 0.21017 0.102505 1.49072 -3.3778 0.41476 -0.301422 -0.0370229 
490 1 0.248442 0.255219 0.0970591 1.08612 -3.30078 0.183912 -0.280794 0.614556 
486 1 0.150758 0.265598 0.102656 4.18657 -3.21459 -0.966226 -0.702688 0.148998 
129 1 0.193101 0.307356 0.00578134 0.565092 -3.30721 0.331022 -0.388896 0.256842 
90 1 0.24241 0.25469 0.00218909 0.544774 -3.30783 0.278031 0.0725824 0.07963 
96 1 0.300125 0.255046 0.047228 1.02464 -3.3101 -0.0742634 -0.0998359 0.440658 
494 1 0.353757 0.250432 0.0968559 0.700135 -3.3429 -0.0737819 0.520644 0.115017 
100 1 0.402509 0.252023 0.0484642 0.351101 -3.30512 -0.105341 0.152171 0.0848564 
139 1 0.459095 0.297966 0.0483025 0.500714 -3.29799 -0.0896016 0.0978739 -0.0800083 
537 1 0.405921 0.301545 0.0954666 0.344784 -3.3146 -0.0977249 -0.164563 0.149663 
104 1 0.510463 0.247272 0.0441942 0.849968 -3.3159 0.101116 -0.117138 0.594293 
143 1 0.560076 0.298091 0.0420926 0.857738 -3.21799 -0.0977677 -0.0346586 -0.281373 
108 1 0.6041 0.250293 0.0342835 5.4692 -3.22633 0.117881 0.0124827 0.0116648 
502 1 0.568379 0.243243 0.0920979 1.95356 -3.29141 -0.399006 -0.309366 0.148676 
545 1 0.610666 0.292221 0.0863187 5.25539 -3.18058 0.39103 0.386234 0.0620583 
112 1 0.712235 0.245535 0.0359191 1.83148 -3.27179 -0.0210009 0.312921 -0.741697 
147 1 0.658867 0.294085 0.0360485 1.22569 -3.27077 0.617706 -0.257789 -0.317874 
506 1 0.659751 0.244437 0.0848511 5.9945 -3.24207 -0.116762 0.345041 -0.0763352 
549 1 0.701341 0.29865 0.0879643 6.15547 -3.28615 0.45284 -0.165359 0.199822 
111 1 0.762667 0.196209 0.0274867 5.89026 -3.2246 -0.466494 0.385134 0.104432 
151 1 0.757342 0.297505 0.0389046 5.62364 -3.27523 0.0371825 0.0492147 0.211911 
116 1 0.807498 0.248327 0.036749 5.42119 -3.2766 -0.468359 -0.0181631 0.143846 
510 1 0.756633 0.254005 0.0863656 4.61342 -3.2609 -0.191872 -0.292887 0.321102 
81 1 0.986425 0.211159 0.00342626 7.09301 -3.30259 -0.694934 0.33224 0.507032 
481 1 0.979426 0.217733 0.099982 0.455792 -3.29404 0.344279 -0.247553 -0.0262802 
84 1 0.981472 0.265152 0.0573684 0.869135 -3.28363 0.117531 -0.171717 -0.454643 
119 1 0.927219 0.21784 0.0523815 7.18186 -3.3222 0.292417 -0.286681 -0.325526 
120 1 0.87572 0.264406 0.0502825 6.82832 -3.2835 0.382409 -0.0584801 0.201788 
118 1 0.930534 0.263194 0.00310631 6.72261 -3.34663 0.19377 -0.434221 0.317917 
123 1 0.0362328 0.308311 0.0574586 0.373169 -3.31629 0.297515 0.152937 -0.250767 
125 1 0.0930779 0.307786 0.0100162 0.720126 -3.3103 -0.526808 -0.262901 0.0122086 
128 1 0.0896803 0.354963 0.0554133 0.640497 -3.36488 -0.056862 0.343103 -0.158282 
522 1 0.0381923 0.358334 0.105095 0.32421 -3.3297 0.133933 -0.25174 0.0465298 
127 1 0.144427 0.308071 0.0567004 0.574187 -3.32701 0.281803 0.00521078 -0.281614 
132 1 0.2012 0.361026 0.0500276 3.0883 -3.36242 -0.223348 -0.559463 0.100255 
529 1 0.201599 0.306655 0.102947 0.951016 -3.18742 -0.0361204 0.417896 0.194351 
526 1 0.143399 0.352883 0.101116 1.26325 -3.31589 0.379766 0.424403 0.314869 
130 1 0.248435 0.351885 -0.00192541 1.75941 -3.24328 -0.140128 0.453513 0.638237 
135 1 0.343342 0.306869 0.0497886 3.97666 -3.21995 1.17295 -0.679508 -0.329759 
133 1 0.294829 0.302338 0.00227159 0.683313 -3.29493 0.269955 -0.0245062 -0.241147 
131 1 0.246741 0.305468 0.0550725 1.15476 -3.32326 0.275075 0.229821 -0.648442 
136 1 0.298085 0.354444 0.0497817 0.970079 -3.31962 -0.174884 0.290846 0.141461 
175 1 0.356558 0.404165 0.0500483 1.5274 -3.30237 -0.643018 -0.704675 0.122783 
573 1 0.306931 0.399772 0.103372 0.583314 -3.29519 0.0762764 -0.0795708 -0.71758 
530 1 0.253482 0.354173 0.105948 1.53418 -3.3035 0.0879439 -0.21837 -0.707007 
134 1 0.350468 0.349204 0.00102925 0.450725 -3.33925 -0.120595 0.0689624 0.194829 
140 1 0.407816 0.349545 0.0533052 1.37 -3.30164 -0.376881 -0.158766 -0.826225 
144 1 0.509033 0.343227 0.0442244 1.06359 -3.26618 0.239426 0.727592 -0.0350608 
148 1 0.619196 0.345188 0.0377666 6.29757 -3.28278 -0.171993 0.134021 -0.220697 
542 1 0.56372 0.342506 0.087983 5.95622 -3.25675 0.250909 0.453964 -0.00516971 
183 1 0.571141 0.394506 0.041443 6.49882 -3.32002 -0.307033 -0.432559 -0.363257 
585 1 0.612808 0.397187 0.0932392 6.4744 -3.27426 -0.195497 0.305471 -0.00876623 
581 1 0.519216 0.39454 0.0909873 1.70197 -3.33159 -0.0144118 -0.156471 -0.104124 
152 1 0.708052 0.345697 0.0409412 3.32108 -3.29387 -0.585644 0.277027 -0.00481135 
187 1 0.657506 0.400486 0.0402655 2.43933 -3.31113 0.413044 -0.295094 0.324303 
546 1 0.654409 0.345287 0.0921518 5.29868 -3.16452 0.523027 0.173005 -0.432015 
155 1 0.832214 0.31501 0.0559181 7.92839 -3.29606 -0.369977 0.0681383 -0.273819 
156 1 0.779155 0.361811 0.0493865 6.21591 -3.26739 0.17801 0.116985 0.743604 
554 1 0.831374 0.365786 0.102936 0.718084 -3.32387 0.0808866 -0.488499 0.328175 
154 1 0.830859 0.358133 0.00510133 7.38803 -3.26435 0.381086 0.192292 -0.196199 
159 1 0.930873 0.311992 0.0539661 0.279663 -3.27694 0.216619 -0.185902 0.0105559 
121 1 0.985895 0.309144 0.00439876 0.585992 -3.29531 -0.165322 -0.0158274 0.560963 
124 1 0.98799 0.35634 0.0538668 0.717863 -3.35443 0.034475 0.372364 -0.0372229 
160 1 0.887623 0.360637 0.0552349 0.820082 -3.26558 -0.606279 0.330251 0.160073 
157 1 0.88088 0.31147 0.00468563 7.17109 -3.29618 -0.0473023 -0.0485529 -0.0142826 
557 1 0.880368 0.31298 0.103836 0.261973 -3.32125 0.0309271 0.462806 0.30265 
558 1 0.936497 0.364271 0.10375 0.930169 -3.2977 0.175527 -0.506601 0.227268 
158 1 0.93406 0.360625 0.00515466 0.628551 -3.26999 0.473257 -0.16985 0.299192 
163 1 0.0428248 0.408968 0.0618342 2.06453 -3.25707 -0.0710256 -0.511932 -1.12771 
165 1 0.0904325 0.403976 0.00583657 0.684041 -3.31184 -0.0278074 -0.0358053 0.123103 
168 1 0.0952104 0.453603 0.0569941 0.491254 -3.25137 0.322926 0.547346 -0.0738105 
162 1 0.0447211 0.45527 0.0111384 1.22545 -3.26519 -0.067212 -0.128355 -0.673997 
562 1 0.0468782 0.454092 0.107573 0.483536 -3.29464 -0.24914 0.390737 -0.0635308 
167 1 0.141407 0.406711 0.0508557 1.97274 -3.29688 0.762602 -0.721772 0.465135 
171 1 0.255283 0.405721 0.0540328 1.16702 -3.25806 -0.502577 -0.220071 0.0670787 
172 1 0.202668 0.453127 0.0579244 1.73538 -3.33382 -0.0142952 -0.268072 -0.455223 
166 1 0.148505 0.450902 0.0074673 1.23267 -3.33426 0.125255 0.330756 -0.320574 
169 1 0.201944 0.405022 0.000246799 1.43289 -3.33923 -0.0236453 -0.0637596 0.565117 
173 1 0.299424 0.402554 0.00306971 0.631712 -3.32129 0.197963 -0.290687 -0.236066 
176 1 0.303326 0.451845 0.0514751 0.715714 -3.25951 0.282499 -0.128563 -0.00759493 
170 1 0.254957 0.452824 0.00340142 0.458 -3.31459 -0.590375 0.0712722 0.00952412 
174 1 0.356818 0.446854 0.00105944 0.470127 -3.3331 -0.278101 0.0354978 -0.0462311 
213 1 0.307258 0.499563 1.0011 0.486271 -3.20977 -0.546746 -0.872961 -0.3845 
179 1 0.460088 0.397215 0.0461598 0.367678 -3.29081 0.390314 -0.224882 0.227268 
180 1 0.411744 0.445818 0.0479095 0.341351 -3.26298 -0.147626 0.306422 -0.0294404 
578 1 0.466664 0.443306 0.0934801 1.37379 -3.18409 -0.396777 -0.670797 -0.243758 
219 1 0.469894 0.489477 0.0435232 5.96333 -3.30536 -0.386115 0.31039 -0.485295 
577 1 0.408505 0.397493 0.0951643 0.801989 -3.33777 0.105666 -0.0860194 0.677817 
178 1 0.456539 0.440383 0.99794 1.21162 -3.32469 0.455197 0.634592 -0.110212 
217 1 0.407625 0.49473 0.99719 0.480617 -3.29486 0.385231 -0.247057 0.119098 
621 1 0.506222 0.494001 0.0966 3.14955 -3.23902 0.581528 0.514844 0.0441135 
184 1 0.51938 0.441484 0.0430995 5.37618 -3.3208 -0.155052 -0.0941778 -0.297768 
188 1 0.608427 0.448502 0.043904 2.79906 -3.25779 0.138443 0.157058 -0.0453043 
582 1 0.562199 0.447424 0.0945697 5.33094 -3.2612 -0.167048 -0.0334498 0.191012 
223 1 0.559029 0.496907 0.0459545 2.94335 -3.26389 -0.0467819 -0.0135048 0.139354 
191 1 0.732869 0.413483 0.0541669 6.89972 -3.35377 -0.0031112 0.0328597 -0.343499 
192 1 0.682659 0.465433 0.0556052 6.66672 -3.326 -0.079009 -0.145073 0.116095 
190 1 0.733621 0.458993 0.00702548 6.67859 -3.33266 0.14593 -0.221421 0.0800037 
195 1 0.83211 0.410912 0.0595929 1.25736 -3.2782 0.193037 0.245489 -0.849343 
193 1 0.783398 0.406956 0.00169583 6.06773 -3.30653 -0.207708 0.257897 0.249195 
196 1 0.789848 0.466016 0.0594018 7.24893 -3.32078 -0.126363 -0.322846 0.0618185 
594 1 0.838609 0.464799 0.108688 0.847408 -3.28872 0.125383 -0.23869 -0.404391 
194 1 0.831404 0.455688 0.00730739 1.88993 -3.32684 0.2745 0.149305 -0.00605981 
197 1 0.883107 0.406102 0.0104933 1.16982 -3.31418 -0.258231 0.531873 -0.272831 
164 1 0.993371 0.457999 0.0561086 0.701166 -3.25778 0.220499 -0.343835 0.195405 
161 1 0.992276 0.408846 0.00528285 1.05429 -3.34227 0.07474 -0.356727 0.307785 
199 1 0.941338 0.407512 0.0562217 0.392225 -3.31187 -0.115614 0.152463 0.0538876 
200 1 0.887719 0.459415 0.0577127 0.497616 -3.30763 -0.366154 -0.52258 0.11458 
598 1 0.945042 0.456847 0.10738 0.808432 -3.31155 -0.454152 -0.0858771 -0.310856 
637 1 0.895519 0.510512 0.105043 0.558872 -3.31103 0.0127353 -0.0100469 0.708949 
198 1 0.938999 0.453122 0.012333 1.60828 -3.30046 0.0104926 0.508542 -0.797354 
205 1 0.098822 0.498584 0.00132677 2.14581 -3.29393 0.165189 0.445663 0.547168 
203 1 0.0503851 0.505788 0.0570054 0.897929 -3.32936 0.106685 -0.104 -0.252394 
208 1 0.104138 0.553306 0.0559664 0.854226 -3.24421 0.0285178 -0.590432 -0.149856 
602 1 0.0546081 0.554836 0.102317 0.808159 -3.28019 -0.425912 -0.584273 0.266703 
243 1 0.0533462 0.598475 0.0519106 0.857555 -3.24273 0.0590036 0.284362 0.0661343 
605 1 0.102706 0.501577 0.103634 0.339405 -3.32873 -0.21684 0.366717 -0.0750885 
202 1 0.0508139 0.55004 0.0060256 0.833357 -3.34271 -0.0631877 0.0247783 -0.0929554 
207 1 0.15286 0.503549 0.0521278 0.998577 -3.30697 -0.450216 -0.593376 0.0390129 
212 1 0.203515 0.546694 0.0536433 0.300269 -3.223 0.605943 0.190874 -0.137451 
606 1 0.158238 0.547864 0.104993 0.667626 -3.20447 -0.844444 -0.079789 -0.0435453 
206 1 0.148941 0.550834 0.00497134 0.708786 -3.33597 0.132462 -0.0867232 -0.467104 
249 1 0.206953 0.598108 1.00153 0.485514 -3.31652 -0.241856 -0.305773 -0.157005 
215 1 0.358304 0.494941 0.046802 0.33956 -3.31366 0.302367 -0.0841442 0.527958 
211 1 0.25281 0.500528 0.0516706 0.750173 -3.32237 0.170012 -0.184482 -0.0715266 
216 1 0.309817 0.544993 0.0431553 1.22557 -3.24629 -0.227947 0.498194 1.02885 
255 1 0.366463 0.591604 0.0415721 1.35488 -3.24014 -0.307234 -0.152285 -0.0725133 
614 1 0.367972 0.54248 0.0946375 1.07733 -3.32155 -0.0911966 -0.439506 -0.245887 
214 1 0.357879 0.540613 0.997655 1.23233 -3.18787 0.792435 1.06747 -0.546263 
220 1 0.413126 0.540445 0.0421053 1.23021 -3.29354 0.316055 0.00972869 0.599614 
618 1 0.462449 0.54595 0.0985682 6.42947 -3.28372 -0.18237 -0.1935 -0.683115 
259 1 0.46601 0.590657 0.0449237 6.32122 -3.20377 -0.685119 0.308889 0.32853 
657 1 0.412664 0.594705 0.0922831 6.98767 -3.29316 0.116985 0.211634 0.067511 
218 1 0.46183 0.541981 0.995215 0.724544 -3.27734 0.308621 -0.0849676 -0.286185 
257 1 0.418102 0.5949 0.9961 1.2185 -3.30172 0.0702614 -0.185541 -0.559944 
224 1 0.51176 0.544853 0.042822 6.98505 -3.22938 0.327317 -0.223266 0.348146 
228 1 0.585623 0.565425 0.0600127 6.86503 -3.31717 -0.403056 -0.34322 -0.356379 
227 1 0.630657 0.511405 0.0607497 7.50391 -3.28518 0.197883 0.629814 -0.507157 
231 1 0.738474 0.512094 0.0611167 1.01459 -3.28433 -0.626542 0.170625 -0.0905011 
232 1 0.686734 0.562378 0.0583831 0.231374 -3.33354 -0.477994 -0.0475385 -0.0481242 
229 1 0.684799 0.510931 0.00947388 7.46144 -3.35585 -0.107437 0.108404 0.0114052 
226 1 0.636992 0.56355 0.00489876 6.28608 -3.2807 -0.00301423 -0.237674 0.71398 
633 1 0.790797 0.516537 0.106635 0.96133 -3.26431 -0.0885056 -0.644095 -0.104741 
235 1 0.846759 0.512815 0.0599974 2.80974 -3.25254 -0.944227 -0.0135241 -0.144617 
236 1 0.789658 0.563642 0.0587629 0.951538 -3.275 -0.0335929 -0.255557 -0.0824859 
275 1 0.844822 0.607591 0.0555798 0.446152 -3.32925 0.0690701 -0.379834 -0.383829 
233 1 0.7832 0.508044 0.0117674 1.10701 -3.24314 0.371312 0.0752987 -0.0406398 
239 1 0.941328 0.50168 0.0576699 1.56843 -3.22702 0.087872 0.600899 -0.530958 
237 1 0.885433 0.506431 0.00839956 1.05997 -3.3159 0.49815 -0.0431236 -0.274232 
204 1 -0.00497844 0.551779 0.0539636 1.55055 -3.24956 0.655737 -0.23543 0.472919 
240 1 0.900217 0.557118 0.0572606 1.3744 -3.3212 -0.333742 0.139576 -0.050769 
277 1 0.894578 0.599093 0.00202466 2.89857 -3.29583 0.035729 0.479017 0.814623 
601 1 0.996412 0.504231 0.101012 1.19942 -3.34019 0.227313 0.232382 0.576511 
238 1 0.948091 0.552251 0.00901757 1.17039 -3.28479 -0.567179 0.0793548 -0.856332 
241 1 0.00679889 0.603625 0.00250748 1.64959 -3.33417 -0.741529 -0.0146629 0.0739287 
248 1 0.107169 0.64824 0.0487025 0.479417 -3.25039 0.572753 -0.315082 -0.00727863 
641 1 1.00762 0.6018 0.0995089 1.12778 -3.27615 -0.651837 0.254492 0.310341 
642 1 0.0635428 0.648907 0.0976315 1.61117 -3.29867 -0.265842 0.11093 0.682078 
245 1 0.100171 0.600011 0.00285369 0.340905 -3.32828 0.351792 -0.0904417 -0.120014 
242 1 0.0571451 0.650287 0.00249284 0.425352 -3.22279 -0.439619 0.429473 -0.222277 
247 1 0.157822 0.594528 0.0527815 0.857783 -3.27072 0.0688247 0.662809 -0.111464 
252 1 0.205348 0.645342 0.045577 0.862242 -3.21193 0.338085 0.317608 0.137744 
287 1 0.153276 0.699201 0.0459688 1.07912 -3.28619 -0.191083 0.174658 -0.355401 
289 1 0.208062 0.695977 0.998294 0.458938 -3.2713 -0.404411 0.16444 -0.434825 
246 1 0.15738 0.647887 0.998646 0.513208 -3.30571 -0.6811 0.095569 -0.0533097 
251 1 0.252702 0.595386 0.0516984 2.55234 -3.33868 0.61354 -0.201679 -0.0884419 
256 1 0.315517 0.641321 0.0443749 1.74192 -3.3108 -0.32373 -0.129399 -0.28409 
291 1 0.259269 0.697326 0.0404046 1.81003 -3.2484 0.442938 -0.166175 0.879478 
693 1 0.306076 0.691231 0.0947889 7.10263 -3.27716 0.150063 0.636497 -0.278017 
254 1 0.369752 0.643886 0.993345 2.20434 -3.26394 -0.849376 -0.0946622 0.231466 
250 1 0.259016 0.646119 0.999901 0.591116 -3.30465 -0.0936659 -0.377174 -0.281722 
260 1 0.412802 0.640307 0.0437207 6.48749 -3.3275 0.362975 0.510939 0.372692 
297 1 0.414502 0.697864 0.993645 6.31987 -3.209 0.167618 -0.406171 0.533309 
264 1 0.486615 0.663978 0.0580028 6.60252 -3.25289 -0.493503 -0.16873 0.138812 
258 1 0.466599 0.650304 0.99365 7.64621 -3.32148 -0.250411 -0.46782 0.176679 
263 1 0.533397 0.615788 0.0578381 5.71036 -3.25658 0.561352 -0.323244 -0.0247685 
268 1 0.589453 0.663338 0.0605027 0.313715 -3.31383 -0.0398479 -0.143476 -0.194443 
265 1 0.585415 0.612496 0.0127014 8.44983 -3.34173 -0.0115194 0.0657256 -0.463066 
262 1 0.538389 0.663735 0.0117708 7.6822 -3.26818 -0.158443 -0.405497 -0.294186 
267 1 0.636408 0.611443 0.0585052 0.66469 -3.31606 0.588505 0.428625 -0.0313222 
271 1 0.741055 0.612966 0.0608518 0.953304 -3.32321 0.0961533 -0.268976 -0.30512 
272 1 0.695168 0.660876 0.0590701 0.439807 -3.30059 -0.290821 0.137968 -0.388421 
270 1 0.741433 0.661933 0.00681631 1.26832 -3.23201 -0.0148648 -0.609125 0.571681 
311 1 0.754342 0.707689 0.0551828 1.39759 -3.2619 -0.662493 -0.0621113 -0.10719 
269 1 0.692617 0.608058 0.00725193 1.47419 -3.27149 -0.352386 0.43709 0.642573 
266 1 0.643376 0.665061 0.012519 1.82874 -3.27453 -0.323718 -0.562232 0.486116 
276 1 0.799179 0.659331 0.0586699 0.908654 -3.25068 -0.2454 -0.842068 -0.554198 
315 1 0.849741 0.702334 0.0543238 0.604293 -3.29289 0.334681 0.566365 -0.245834 
273 1 0.786869 0.610794 0.00681232 1.07966 -3.38206 0.325949 -0.105674 0.190493 
274 1 0.852364 0.655486 0.00325255 2.39183 -3.33753 -0.622576 -0.134066 0.505578 
244 1 0.00993173 0.653487 0.0517169 0.83872 -3.30895 -0.489985 -0.265214 -0.0366007 
279 1 0.953817 0.602029 0.0527789 0.905529 -3.30972 -0.163918 0.668555 -0.0482499 
280 1 0.897912 0.650736 0.0538224 0.962981 -3.28066 0.615372 0.275212 0.044023 
319 1 0.95839 0.700308 0.0545949 0.543908 -3.27409 0.162807 -0.469676 -0.294798 
278 1 0.94664 0.651567 0.00591607 1.73894 -3.39009 0.481253 0.0314189 0.0787167 
281 1 0.00582655 0.70042 0.999367 1.2543 -3.27621 0.735628 -0.640285 0.490743 
283 1 0.0630743 0.698645 0.0518962 5.70349 -3.25379 -0.309582 0.0185493 -0.0210574 
288 1 0.0987127 0.751843 0.0460679 5.66499 -3.27888 -0.079715 0.182699 -0.152209 
282 1 0.0492707 0.757445 0.996653 5.59703 -3.17102 -0.0562623 -0.882978 0.239844 
725 1 0.0915223 0.806059 0.0891486 7.66371 -3.26571 0.188613 -0.575958 0.454501 
285 1 0.103752 0.700223 -0.00424516 0.813875 -3.30962 0.0563458 0.0152989 0.348782 
321 1 0.995177 0.804244 0.995794 5.73638 -3.2895 -0.576538 -0.0841599 -0.109837 
292 1 0.20665 0.745731 0.0482502 1.14715 -3.30895 -0.128686 0.0700103 -0.55012 
729 1 0.209399 0.795548 0.0913113 7.27301 -3.27647 -0.323353 0.131774 0.213535 
327 1 0.15359 0.798577 0.0462409 0.748637 -3.27837 0.1278 -0.466985 -0.490515 
331 1 0.263105 0.791462 0.0432521 5.99567 -3.30044 0.0243219 0.189178 0.0823565 
686 1 0.146671 0.752889 0.0938277 6.72362 -3.25564 0.427686 0.338463 0.249521 
295 1 0.359869 0.691603 0.0455817 6.27163 -3.29814 0.26044 -0.00798949 -0.372739 
690 1 0.257405 0.744559 0.0950109 6.77914 -3.28044 0.492976 -0.0388307 -0.221654 
296 1 0.311983 0.744769 0.0448413 6.31889 -3.29407 -0.00312848 -0.356075 -0.109182 
293 1 0.310623 0.691311 0.995774 0.74662 -3.29823 0.478693 0.217872 -0.319696 
294 1 0.364178 0.741643 0.996805 7.23691 -3.29311 -0.391336 0.0931847 -0.333701 
299 1 0.435264 0.707817 0.0565214 7.20672 -3.26661 -0.144688 0.594109 -0.0374719 
300 1 0.383834 0.763917 0.0546879 6.0089 -3.25098 -0.195588 -0.325878 0.491119 
304 1 0.486424 0.766522 0.0609374 1.60122 -3.30072 0.234727 -0.853176 -0.31127 
298 1 0.435534 0.764026 0.0105275 6.51477 -3.34829 0.348426 -0.284279 -0.275199 
301 1 0.487666 0.712879 0.0113795 6.95933 -3.27183 -0.18111 0.304281 -0.164171 
303 1 0.534334 0.711853 0.06321 1.32305 -3.2928 0.275147 0.359895 -0.475571 
308 1 0.590597 0.760219 0.0623945 1.24619 -3.28401 0.216039 0.137756 -0.910639 
302 1 0.538411 0.760677 0.0118489 0.354617 -3.34178 -0.0639066 -0.184461 -0.0639371 
305 1 0.588563 0.708469 0.0117821 0.518605 -3.28505 -0.161444 0.663044 0.166808 
307 1 0.644345 0.713628 0.0593293 0.658898 -3.32497 0.124035 -0.214845 -0.395764 
309 1 0.698227 0.713912 0.00843637 2.37762 -3.28492 -0.412825 -0.434595 0.292247 
312 1 0.7022 0.756707 0.0544595 0.75215 -3.33039 -0.378317 0.149363 0.133948 
306 1 0.638516 0.759801 0.0115889 1.83446 -3.30746 0.282172 -0.518227 -0.397907 
713 1 0.803331 0.703538 0.103944 1.13074 -3.29319 0.306339 0.228652 0.474633 
316 1 0.804282 0.756751 0.0554877 1.69219 -3.30419 0.173679 -0.271738 -0.294681 
313 1 0.794828 0.701981 1.00309 1.59895 -3.25211 0.745969 0.415305 0.0822715 
710 1 0.751299 0.748231 0.102112 2.13671 -3.21172 -0.10366 0.838827 0.289583 
310 1 0.754327 0.757444 0.00288272 1.76085 -3.29271 -0.354451 -0.00227293 0.495414 
284 1 0.0159394 0.748084 0.051986 6.99704 -3.28813 0.169756 -0.339909 0.423436 
320 1 0.910374 0.745864 0.0572877 1.81032 -3.20611 -0.72202 0.659481 -0.415657 
359 1 0.965089 0.791806 0.0547911 6.41642 -3.29339 -0.293051 0.583874 0.0509757 
357 1 0.914199 0.791688 0.00281555 6.81486 -3.31888 -0.397823 0.40659 0.327183 
318 1 0.959483 0.74409 0.00534907 5.23983 -3.13852 -0.158343 0.542405 0.371163 
323 1 0.0413762 0.809592 0.0441638 6.54098 -3.27894 0.0581151 -0.407095 -0.0857753 
328 1 0.102436 0.848682 0.0416189 0.518614 -3.25914 0.00917088 -0.335171 -0.376738 
363 1 0.0536969 0.898247 0.0342438 1.0253 -3.23004 0.293896 -0.281853 0.498831 
765 1 0.105826 0.894841 0.0842553 7.39887 -3.26095 -0.193442 0.0819821 0.446412 
365 1 0.108642 0.889587 0.98996 1.19485 -3.31924 0.314653 0.407684 -0.210277 
722 1 0.0443432 0.854488 0.0914528 6.55974 -3.24595 -0.0309142 -0.0610499 -0.146389 
332 1 0.2106 0.841053 0.0428479 6.65008 -3.3245 0.253844 0.207691 0.0210781 
371 1 0.22744 0.91382 0.0548825 6.6213 -3.31597 -0.0742277 0.382001 -0.0932665 
726 1 0.152901 0.842913 0.0900405 6.00038 -3.28696 0.414599 0.360335 0.101478 
335 1 0.335186 0.818412 0.0564849 7.8759 -3.28806 -0.619696 -0.501717 0.0356413 
336 1 0.280169 0.86479 0.0589486 7.18577 -3.21909 3.86936e-05 0.0793738 -0.901977 
334 1 0.325662 0.866806 0.00658123 7.15683 -3.26167 0.646462 -0.426885 0.120511 
375 1 0.332955 0.915031 0.0508056 1.18085 -3.24329 0.951722 -0.261522 0.385639 
773 1 0.284164 0.917063 0.0956804 2.60488 -3.24879 -0.172031 -0.275078 1.14514 
339 1 0.434123 0.809622 0.0600067 0.933479 -3.21029 0.216251 0.272011 -0.186333 
340 1 0.388222 0.862541 0.0509657 1.16868 -3.22543 -0.36221 0.479675 0.146711 
344 1 0.485164 0.856527 0.0561161 1.59378 -3.23362 0.621456 0.387671 -0.0309247 
338 1 0.439358 0.857345 0.00743026 0.839553 -3.10699 -0.270749 0.810645 0.40983 
337 1 0.383888 0.813117 0.0116527 7.35535 -3.25365 -0.401695 -0.29477 -0.716173 
343 1 0.538511 0.813102 0.0566865 1.46438 -3.28151 0.662748 -0.617074 0.00197045 
348 1 0.601587 0.852554 0.0539468 1.43112 -3.34004 -0.205702 0.258395 0.000931229 
742 1 0.544249 0.857471 0.0987013 1.52724 -3.28374 -0.0466941 0.0269686 0.611146 
342 1 0.544527 0.856692 0.00450412 0.413647 -3.3113 -0.0861427 0.451262 0.251227 
345 1 0.588068 0.806641 0.00557394 1.30957 -3.25547 0.338118 0.10433 0.349965 
347 1 0.650778 0.806067 0.0507796 1.88842 -3.28671 -0.203521 0.0219335 0.918227 
352 1 0.704546 0.853919 0.0551425 0.44761 -3.35853 -0.111415 0.0212185 0.017525 
346 1 0.650515 0.849642 0.00230585 1.2888 -3.25539 -0.0799324 0.907859 0.377452 
349 1 0.700854 0.804919 0.00476606 0.662245 -3.28596 0.408955 -0.310126 -0.202045 
746 1 0.653564 0.853451 0.105523 0.995349 -3.27914 0.3854 -0.000439518 -0.551686 
355 1 0.863785 0.797351 0.0554897 1.8254 -3.29485 -0.470964 0.18256 -0.457928 
353 1 0.806215 0.806766 0.00515981 1.6777 -3.1945 0.13071 -0.646272 -0.194961 
351 1 0.753798 0.802149 0.0531064 0.565312 -3.27394 -0.295429 0.348537 0.242899 
356 1 0.810775 0.846761 0.0530205 0.840554 -3.31558 0.149314 0.230873 0.790181 
395 1 0.867592 0.894315 0.0538541 6.60378 -3.28974 0.142467 -0.297317 0.379391 
354 1 0.865765 0.845883 1.00464 7.72594 -3.3112 0.0830183 0.0472694 0.020292 
754 1 0.85789 0.842653 0.108653 1.80429 -3.33327 0.0620729 0.0724211 -0.381045 
757 1 0.910854 0.796293 0.102039 1.24405 -3.27471 0.707383 0.260923 0.672875 
324 1 0.993021 0.859919 0.0369766 8.57822 -3.30482 -0.0411428 -0.490509 0.646582 
360 1 0.917882 0.844794 0.0529755 7.04469 -3.32837 0.0831189 -0.146058 0.503117 
3 1 0.0589079 0.996514 0.039942 7.30093 -3.33915 -0.488889 -0.377415 -0.430834 
368 1 0.109248 0.941307 0.0363629 5.34141 -3.30017 -0.124478 0.293959 0.0161719 
762 1 0.0572708 0.942557 0.0859118 6.30957 -3.26235 -0.441428 0.259439 0.131886 