ITEM: TIMESTEP
19500
ITEM: NUMBER OF ATOMS
4000
ITEM: BOX BOUNDS pp pp pp
3.8883147089886414e+00 3.6611685291010787e+01
-4.0219336617189061e+00 4.4521933661717625e+01
-6.3845324201423681e-01 4.1138453242014748e+01
ITEM: ATOMS id type xs ys zs c_csym c_peratom fx fy fz 
7 1 0.0925737 0.053324 0.0505387 1.02982 -3.31762 -0.0418679 0.19449 -0.0158392 
3 1 0.0203786 0.0217607 0.0472227 1.13185 -3.29713 0.545655 -0.0982327 0.21601 
2 1 0.0323374 0.0637204 0.00191226 1.0805 -3.3391 0.0206024 0.290759 -0.379647 
372 1 0.144823 0.00410957 0.0506373 0.974473 -3.31977 -0.128075 0.411858 -0.105663 
766 1 0.0847672 0.0140159 0.0999095 0.454406 -3.33117 0.111477 0.102754 0.0412535 
11 1 0.204198 0.0457558 0.0521171 1.43466 -3.30096 0.196305 -0.249542 -0.379647 
12 1 0.156987 0.0939584 0.0469877 1.01817 -3.33884 -0.247259 0.0221701 0.641702 
16 1 0.274439 0.0771526 0.0519856 0.222743 -3.3584 -0.0151157 0.133333 -0.0414112 
409 1 0.151353 0.0484169 0.100605 0.580001 -3.32068 -0.129533 0.0337332 0.286984 
410 1 0.213237 0.0871761 0.100902 0.643974 -3.3748 0.13994 0.0415106 -0.0459128 
413 1 0.265399 0.0349795 0.101892 0.680751 -3.34064 -0.355236 -0.23741 -0.248607 
15 1 0.319113 0.0275222 0.0482436 1.05539 -3.29137 0.130887 -0.218041 0.0923419 
20 1 0.381278 0.0620759 0.0495811 1.3828 -3.28128 0.481935 -0.195903 0.230926 
414 1 0.330538 0.0686271 0.102491 0.392713 -3.33911 0.284826 0.102876 -0.11104 
417 1 0.382174 0.0189101 0.0998473 0.688782 -3.33956 -0.304381 0.0645212 0.162643 
19 1 0.438239 0.0130835 0.0499857 0.664192 -3.26029 -0.407427 -0.322899 0.0352554 
24 1 0.501167 0.0441274 0.0532435 0.562826 -3.27216 0.652784 0.462362 -0.565809 
63 1 0.570776 0.0783942 0.0529889 0.574 -3.3079 -0.462078 0.128406 -0.353033 
461 1 0.510608 0.0861099 0.102607 0.32152 -3.28262 0.115339 0.569576 -0.349771 
418 1 0.445363 0.0530361 0.103123 0.338762 -3.27196 -0.153608 0.131994 -0.269759 
421 1 0.493151 0.00680886 0.102964 0.870795 -3.31264 0.24887 -0.536317 0.0523624 
422 1 0.559381 0.0405107 0.101119 0.748506 -3.31815 0.489091 -0.57311 0.120472 
28 1 0.623199 0.027889 0.0515578 1.00545 -3.35258 -0.373127 0.212434 -0.152506 
67 1 0.687129 0.0667203 0.0465479 0.546194 -3.30427 -0.00418599 -0.227727 0.368694 
465 1 0.627653 0.071806 0.097343 0.660584 -3.30714 0.154735 -0.103625 0.357001 
32 1 0.735198 0.0148982 0.0512997 0.941209 -3.27602 -0.0260953 0.224603 -0.941882 
36 1 0.79698 0.0526667 0.0474366 0.527138 -3.25686 0.137824 -0.0819738 -0.38657 
34 1 0.850281 0.0461863 -0.00431217 0.95296 -3.27738 0.076817 -0.00860667 0.536507 
35 1 0.852458 0.00376575 0.0435451 1.67483 -3.28191 -0.824685 -0.567643 0.44856 
473 1 0.808262 0.0935497 0.102094 0.615164 -3.24655 -0.11904 -0.0970095 -0.180985 
469 1 0.747028 0.0595691 0.0954708 1.02209 -3.22887 -0.469624 0.00843952 0.502241 
430 1 0.794055 0.0112985 0.0962356 0.816739 -3.25341 -0.172681 -0.71861 0.303817 
33 1 0.788466 0.00796172 -0.00386571 0.446616 -3.28295 0.515041 0.402214 0.540079 
75 1 0.861962 0.0839606 0.0505211 1.0647 -3.29668 0.0784397 0.237345 -0.493517 
4 1 0.970455 0.0731148 0.0485235 0.614487 -3.28836 0.362617 0.383984 -0.319005 
40 1 0.913908 0.0344452 0.0442524 1.45711 -3.20567 -0.0221343 0.363117 0.114027 
401 1 0.964861 0.0297496 0.0947557 1.2902 -3.21397 0.492636 0.0196058 0.546441 
38 1 0.9694 0.0286016 -0.00236383 0.349285 -3.26144 -0.00238437 -0.0381302 -0.429288 
8 1 0.040093 0.108297 0.050833 0.713864 -3.28692 -0.263284 -0.690663 -0.113588 
47 1 0.10236 0.141959 0.0499529 0.642647 -3.31557 0.646303 0.134612 -0.157244 
406 1 0.0975354 0.0968724 0.098776 0.982982 -3.36927 0.431475 0.389153 0.0589383 
445 1 0.0525147 0.151193 0.101312 0.612626 -3.30687 -0.349305 -0.414599 0.153209 
52 1 0.171662 0.176085 0.0501845 0.280289 -3.34819 0.087936 0.0161147 -0.288963 
51 1 0.225797 0.129117 0.0520833 0.471114 -3.32135 -0.225631 -0.476278 -0.0138898 
449 1 0.164801 0.137571 0.10148 0.670581 -3.30708 -0.790543 -0.803231 -0.155242 
450 1 0.228951 0.167516 0.100446 0.881556 -3.23259 0.389561 0.494121 0.0882445 
453 1 0.284854 0.119662 0.108252 2.58096 -3.28615 -0.815346 -0.591258 -0.789121 
55 1 0.34048 0.111459 0.0507097 0.333248 -3.27123 -0.54092 -0.270957 0.206692 
56 1 0.293667 0.160104 0.0554631 1.31371 -3.1858 -0.948137 -0.364576 -0.651463 
60 1 0.404084 0.143858 0.0510455 0.2085 -3.30109 0.361287 0.37235 -0.208398 
454 1 0.347201 0.151336 0.0999391 0.344457 -3.22462 0.455174 0.328708 0.492494 
54 1 0.345582 0.154317 0.000308744 0.297055 -3.29321 0.0638691 -0.0564514 -0.0441439 
59 1 0.45011 0.0921877 0.0512327 0.854295 -3.3445 0.557151 0.3171 0.0630131 
458 1 0.463786 0.135534 0.0996375 0.367351 -3.30935 0.319956 0.119175 -0.0541428 
64 1 0.520734 0.12835 0.0495954 0.280414 -3.37232 -0.0446358 -0.0929415 0.410894 
462 1 0.579339 0.122807 0.101376 0.27869 -3.29492 -0.420151 -0.451521 -0.279937 
501 1 0.527952 0.169954 0.103793 1.21023 -3.33557 0.3072 0.255578 -0.520449 
99 1 0.469717 0.181134 0.0477427 0.955806 -3.31992 0.228963 -0.52464 0.303167 
62 1 0.575601 0.121594 -0.00189697 0.607514 -3.26659 0.270212 0.174189 0.260594 
103 1 0.584807 0.165191 0.0482735 0.435483 -3.29271 -0.0329698 -0.0563331 0.630669 
68 1 0.632319 0.116102 0.0486952 0.3723 -3.31298 -0.0795852 -0.0830264 0.0905553 
72 1 0.698475 0.14856 0.0475776 1.30677 -3.27949 -0.259433 0.448799 0.457317 
505 1 0.640042 0.156044 0.101062 0.542918 -3.28341 0.567595 0.731211 -0.365213 
66 1 0.639916 0.158894 0.00169369 0.405981 -3.2909 0.108209 -0.0824871 -0.249233 
466 1 0.688117 0.10897 0.0976756 0.739984 -3.31883 0.207681 -0.0912665 0.0397325 
69 1 0.690765 0.10741 -0.00167399 0.505569 -3.32693 0.213654 0.343172 -0.0734273 
71 1 0.749643 0.103297 0.0498558 0.374116 -3.29252 -0.052261 -0.461019 -0.19613 
76 1 0.812139 0.13665 0.0528634 0.738249 -3.31768 0.463937 0.339172 -0.507082 
470 1 0.754841 0.143075 0.0989912 0.634964 -3.28353 0.102999 0.22627 0.137605 
70 1 0.754888 0.145461 0.0022135 0.449661 -3.295 0.0388165 -0.0591279 -0.334416 
113 1 0.816986 0.18115 0.000685527 0.341232 -3.3401 0.363895 0.0735921 0.450299 
80 1 0.876678 0.174688 0.0507074 0.516197 -3.29057 -0.635206 -0.0599332 0.123975 
74 1 0.869935 0.131006 -8.97509e-05 0.478292 -3.25574 -0.305167 -0.105176 -0.249071 
43 1 0.994831 0.154892 0.0498034 1.28546 -3.30165 -0.477597 0.228717 0.155484 
79 1 0.916529 0.125227 0.0508104 2.55554 -3.23252 1.05455 -0.169785 -0.105668 
402 1 0.98016 0.115733 0.0982613 0.810352 -3.33932 0.340355 -0.132901 0.348602 
78 1 0.927804 0.167895 0.000276431 0.909707 -3.24581 0.191885 -0.102039 -0.102559 
446 1 0.117793 0.185544 0.0994037 0.526966 -3.29264 -0.498072 -0.188356 0.399286 
48 1 0.0576616 0.191569 0.051019 0.250046 -3.33114 -0.14476 0.153601 -0.175901 
83 1 0.00427517 0.243972 0.0533063 1.15499 -3.24403 -0.0487408 -0.810552 -0.0728078 
87 1 0.123414 0.225135 0.0492407 0.301138 -3.26715 -0.0426462 0.0733255 0.203785 
486 1 0.134236 0.266406 0.100312 0.445269 -3.27821 -0.317158 0.0155242 0.125992 
91 1 0.241999 0.208892 0.0531154 1.06177 -3.35817 -0.229035 0.144913 -0.544829 
92 1 0.191209 0.258595 0.0527005 0.508463 -3.27024 -0.456629 -0.410899 -0.286091 
489 1 0.18004 0.218558 0.0998359 0.388808 -3.27695 0.308035 0.055994 0.136437 
490 1 0.243445 0.254474 0.104192 1.15136 -3.27568 0.794973 -0.600195 -0.243037 
95 1 0.351215 0.194292 0.0511695 0.725165 -3.29131 0.787352 0.746565 -0.121991 
96 1 0.305531 0.24597 0.0496699 0.794395 -3.34756 -0.0364516 -0.264682 0.319151 
100 1 0.422819 0.228143 0.0486779 0.590984 -3.24554 -0.485574 -0.100914 0.504627 
497 1 0.414592 0.182686 0.0996265 0.703824 -3.34908 0.127784 0.699284 0.0557459 
493 1 0.295819 0.203646 0.100202 0.380024 -3.29701 0.303463 0.144114 0.297756 
494 1 0.364577 0.23533 0.103516 0.813735 -3.34781 0.0973871 0.0536542 -0.3975 
139 1 0.483695 0.264615 0.046607 0.591059 -3.32582 0.00592695 0.154064 0.42156 
498 1 0.483064 0.219216 0.0973617 0.972778 -3.32232 -0.309943 0.0706598 0.0129918 
104 1 0.538155 0.214843 0.0452071 1.1834 -3.21013 -0.779122 -0.241721 0.46992 
541 1 0.547632 0.252983 0.098798 1.62602 -3.25345 -0.673282 1.05664 -0.15501 
108 1 0.601864 0.246805 0.0492335 1.20145 -3.21408 0.252807 0.960424 0.299236 
107 1 0.648349 0.201262 0.053416 0.845618 -3.27218 0.281001 -0.672118 -0.214897 
509 1 0.706949 0.194429 0.103632 0.664567 -3.25353 -0.389008 -0.323528 0.285982 
112 1 0.706959 0.238073 0.0484262 1.16742 -3.27543 0.104237 0.48627 0.323778 
502 1 0.590394 0.208152 0.0978012 1.10787 -3.24618 0.0897723 -0.882834 0.541756 
115 1 0.825446 0.22632 0.0492865 0.836334 -3.26191 -0.655552 -0.525196 0.135383 
111 1 0.753682 0.189924 0.0549212 2.46526 -3.23071 0.636169 -0.173881 -0.945531 
513 1 0.765377 0.232474 0.10046 0.981199 -3.28076 -0.0786074 0.11761 0.1192 
116 1 0.774527 0.272566 0.053529 0.542238 -3.36143 -0.0051404 0.26471 -0.324511 
517 1 0.833596 0.265349 0.103731 0.640182 -3.29182 -0.344491 -0.0300846 -0.434141 
44 1 0.941627 0.206121 0.0506951 0.503662 -3.31389 0.203802 0.251323 0.424063 
119 1 0.889625 0.257255 0.0518706 0.459324 -3.30246 0.486291 0.582193 -0.228817 
481 1 0.946911 0.249138 0.104082 0.909023 -3.29696 0.0493867 -0.193717 -0.436927 
442 1 1.00296 0.197277 0.10206 0.791363 -3.35648 -0.193179 0.385266 -0.148405 
478 1 0.881024 0.216889 0.0986239 0.534871 -3.31258 0.134276 -0.418374 0.333923 
88 1 0.0716796 0.272069 0.0512691 1.05776 -3.25817 0.366179 0.605629 -0.0198611 
123 1 0.0234156 0.327876 0.0513943 0.331705 -3.36103 -0.0492018 -0.153928 0.080012 
482 1 0.0109379 0.284031 0.0967023 1.76991 -3.24594 0.875565 0.326004 0.857983 
128 1 0.0922148 0.359422 0.0474777 0.764864 -3.32972 -0.374312 0.0607772 0.327775 
127 1 0.135602 0.306934 0.0515104 0.900607 -3.33933 0.469774 0.234731 0.0730905 
526 1 0.147303 0.349871 0.100559 0.296933 -3.30767 0.209337 0.208566 -0.0996646 
132 1 0.20502 0.340588 0.0521524 0.24429 -3.32604 0.112853 0.088911 0.198565 
131 1 0.251215 0.291685 0.049775 0.857318 -3.2364 1.14959 0.495138 0.496976 
529 1 0.198496 0.29801 0.102953 0.957618 -3.2237 0.16877 1.06562 -0.524647 
136 1 0.318607 0.328845 0.0501944 0.730165 -3.33143 -0.0500435 -0.341629 0.13983 
135 1 0.376752 0.274657 0.0543787 3.79346 -3.2661 -0.531974 0.422066 -0.177371 
133 1 0.316546 0.286244 0.00411544 1.59319 -3.34349 -0.332519 0.00981484 -0.318753 
140 1 0.435663 0.314037 0.0489087 0.756739 -3.30664 -0.177584 0.192603 0.370944 
137 1 0.42253 0.278351 -0.00114938 3.34105 -3.26527 0.391456 -0.473211 -0.136777 
134 1 0.373931 0.324836 -0.00141405 0.735534 -3.32069 0.128216 0.284342 0.153013 
144 1 0.49987 0.347876 0.0509068 1.26324 -3.28572 0.0395323 0.477385 -0.214098 
141 1 0.489591 0.31087 -0.00364958 1.46275 -3.31897 0.0567366 -0.44401 0.191619 
143 1 0.54571 0.300715 0.0517779 0.896308 -3.25829 0.0518072 -0.581003 -0.241868 
542 1 0.556638 0.344609 0.100316 0.445581 -3.27865 0.228358 -0.211708 0.000162773 
142 1 0.550297 0.348233 -0.00355566 2.40649 -3.29216 0.347146 -0.532754 0.129898 
148 1 0.607076 0.33322 0.0479492 2.0245 -3.27843 0.493067 0.788344 -0.0425169 
147 1 0.659305 0.289467 0.0498087 1.18131 -3.26335 0.265543 -0.518321 0.254964 
545 1 0.607997 0.290831 0.102831 1.02008 -3.26473 -0.677776 -0.0308449 -0.425663 
549 1 0.66259 0.3295 0.104202 1.07157 -3.31432 0.319721 0.430191 -0.243739 
145 1 0.607019 0.291272 0.000724715 1.4594 -3.27102 -0.249399 0.969455 -0.350493 
146 1 0.672029 0.330806 -0.00259102 0.97126 -3.29863 -0.577333 -0.282469 0.313646 
151 1 0.723184 0.321614 0.0532847 0.657821 -3.28296 0.210013 0.115196 -0.125368 
120 1 0.839838 0.310058 0.0503409 0.374447 -3.28155 0.0315816 -0.285824 0.0909747 
155 1 0.787855 0.355588 0.0535773 1.44652 -3.28575 0.287051 0.781164 -0.463896 
514 1 0.786379 0.317824 0.10072 1.28383 -3.26557 -0.306688 -0.723515 0.300405 
553 1 0.732436 0.365266 0.102478 0.410472 -3.33265 -0.109425 0.120342 -0.0262671 
153 1 0.782176 0.318445 0.00115643 0.56114 -3.29319 0.137216 -0.503167 -0.136815 
84 1 0.954782 0.293854 0.0543746 0.665117 -3.27304 -0.290871 0.0174984 -0.962976 
159 1 0.907092 0.342516 0.0539685 0.556056 -3.33124 0.280385 0.0744846 -0.447632 
518 1 0.897402 0.299357 0.101006 0.252642 -3.2821 0.166463 0.275927 0.0905049 
521 1 0.965642 0.334109 0.103959 0.433461 -3.35289 0.105349 0.129351 -0.272548 
163 1 0.0388381 0.411338 0.0502845 0.324808 -3.29206 0.351665 0.168675 -0.226819 
168 1 0.110223 0.442469 0.0503935 0.49863 -3.31097 -0.303163 0.265257 0.101176 
165 1 0.100782 0.402084 -6.84658e-05 0.607581 -3.30255 -0.280808 -0.148112 0.559948 
522 1 0.0352759 0.370825 0.100389 0.43265 -3.31705 -0.421522 -0.721124 -0.116854 
565 1 0.0980552 0.40411 0.0960811 1.24772 -3.28567 0.480322 -0.175805 0.492556 
167 1 0.159336 0.388701 0.052868 1.72242 -3.27 -0.204131 0.441285 -0.235035 
172 1 0.220432 0.42582 0.0499145 0.629634 -3.25021 0.541892 0.12858 -0.190263 
166 1 0.16289 0.437461 0.0038859 0.621647 -3.25449 0.121777 -0.134916 -0.629479 
171 1 0.273798 0.37668 0.0540506 1.37244 -3.31234 -0.359632 0.152638 -0.953428 
170 1 0.276246 0.42122 0.000372204 0.23859 -3.2881 0.0317306 -0.135295 -0.0546251 
569 1 0.216642 0.384844 0.100905 0.224783 -3.25413 -0.290257 0.0842227 -0.065684 
566 1 0.171576 0.432229 0.0982324 1.40745 -3.29107 -0.712065 0.471484 0.517241 
176 1 0.338637 0.41391 0.0480769 0.993023 -3.31037 -0.32513 0.0750801 0.120543 
175 1 0.381992 0.363004 0.0536594 1.38756 -3.29524 0.191915 -0.0366121 -0.762387 
180 1 0.40275 0.452663 0.0519662 1.16039 -3.25539 -0.636709 -0.184284 0.0800622 
173 1 0.321085 0.371936 -0.00252906 0.738946 -3.32892 0.0813966 0.166325 0.455024 
179 1 0.443378 0.400673 0.0503279 0.948019 -3.28358 0.654169 0.10955 -0.293729 
183 1 0.563207 0.387991 0.0494145 0.727851 -3.27429 0.104972 -0.375115 0.0341773 
184 1 0.512717 0.436057 0.049097 0.626007 -3.38497 -0.0885727 0.00854139 0.267525 
181 1 0.503461 0.394213 0.00175698 0.666558 -3.24979 -0.0626666 0.392679 -0.104026 
185 1 0.620122 0.378129 0.000518568 0.630834 -3.3235 -0.0207454 0.116942 -0.049563 
187 1 0.627305 0.422061 0.0557048 0.607704 -3.33948 0.175678 0.0898014 -0.529386 
152 1 0.674354 0.369987 0.0528612 0.668625 -3.38944 0.123087 0.29832 -0.115765 
550 1 0.68618 0.415564 0.103818 0.313071 -3.32105 0.146123 -0.236593 -0.115843 
189 1 0.686057 0.415377 0.000212834 0.599404 -3.31931 -0.483271 -0.183117 0.328184 
546 1 0.616699 0.382209 0.103883 0.692279 -3.26992 0.25686 -0.24836 -0.472635 
156 1 0.744164 0.408943 0.0493046 0.703525 -3.30949 -0.807438 -0.34154 0.544216 
195 1 0.806937 0.444133 0.0515043 0.592578 -3.27984 0.337247 -0.097081 -0.168194 
154 1 0.797657 0.401855 0.00423858 1.34696 -3.26234 0.191461 -0.325288 -0.623786 
593 1 0.751284 0.449399 0.104325 0.370784 -3.25467 -0.0324122 -0.166461 -0.0984373 
554 1 0.797426 0.402647 0.101869 0.793972 -3.30293 -0.120936 -0.508914 0.00805782 
160 1 0.85921 0.390409 0.050606 1.03431 -3.3232 -0.419211 0.0895762 -0.131513 
197 1 0.860021 0.436008 -0.00453256 1.78191 -3.31004 0.510967 0.0537491 0.458339 
124 1 0.976697 0.376836 0.0510965 0.24698 -3.32036 -0.541991 -0.239559 0.176796 
199 1 0.923145 0.424395 0.0491731 0.423114 -3.33431 0.168434 0.246915 0.13823 
597 1 0.864206 0.433652 0.0962503 1.2162 -3.32294 0.458051 0.266922 0.498841 
558 1 0.918603 0.383022 0.102608 0.49419 -3.31605 -0.107552 0.153507 -0.252307 
562 1 0.0515495 0.452928 0.0987745 0.342379 -3.33445 0.102374 0.0116291 0.464723 
203 1 0.0599462 0.491153 0.0520196 0.395122 -3.33487 0.0804863 -0.0183295 -0.276774 
208 1 0.126285 0.527254 0.0513025 0.343211 -3.28914 -0.285489 0.0521658 -0.0204313 
605 1 0.123251 0.485308 0.103605 1.24927 -3.33129 -0.536527 -0.329935 -0.374719 
205 1 0.116171 0.487759 0.0017917 0.333926 -3.34944 -0.339916 -0.410946 -0.0199689 
202 1 0.0653988 0.534896 0.00555241 0.754597 -3.30513 0.0818119 -0.138949 -0.462092 
207 1 0.177254 0.476769 0.0530396 0.541152 -3.35205 -0.105366 0.311615 -0.0717495 
212 1 0.241474 0.516403 0.0552288 1.507 -3.24093 -0.402641 -0.571593 -0.646289 
209 1 0.230185 0.468617 0.00249173 1.57644 -3.29436 0.0514364 0.595387 -0.221071 
211 1 0.287076 0.463796 0.0493204 0.343122 -3.26634 -0.434031 0.191938 0.522172 
206 1 0.182905 0.519275 0.00413919 1.67329 -3.33023 0.402174 0.170104 -0.185312 
215 1 0.348939 0.502008 0.0515542 0.261824 -3.31766 0.324752 0.0303347 -0.548493 
220 1 0.410751 0.540658 0.0498553 1.67445 -3.27616 0.272815 -0.676051 -0.202583 
617 1 0.408114 0.492566 0.102309 0.465149 -3.26633 -0.0798833 -0.0442643 -0.269906 
614 1 0.35875 0.542455 0.100116 1.0124 -3.2816 0.548103 0.645556 0.380726 
174 1 0.336666 0.459363 0.00282439 0.713756 -3.29006 0.60355 0.145879 -0.743327 
213 1 0.288543 0.513242 0.00244372 1.0848 -3.29882 -0.586656 -0.774333 -0.24656 
214 1 0.349703 0.545712 0.00063861 0.555412 -3.27856 0.81583 0.173529 -0.100427 
219 1 0.466636 0.483689 0.0493509 1.68215 -3.26323 0.133616 0.704642 0.467313 
621 1 0.464256 0.529607 0.106051 1.40376 -3.27892 0.681017 0.443039 -0.474937 
582 1 0.520224 0.479793 0.102459 0.526505 -3.33914 -0.203355 0.0531866 -0.00623168 
223 1 0.525728 0.523424 0.0562474 0.960052 -3.34819 0.0700846 0.00491111 -0.14643 
221 1 0.522407 0.479728 -0.00114519 1.10589 -3.27419 0.121713 -0.465448 0.302895 
191 1 0.693885 0.457173 0.0520973 0.374058 -3.31291 0.117749 -0.198328 0.0226261 
188 1 0.57835 0.473133 0.0560564 0.5851 -3.28259 -0.297025 -0.131117 -0.154651 
586 1 0.589911 0.514211 0.100886 0.686249 -3.29933 -0.528855 0.149851 0.727757 
192 1 0.646604 0.508236 0.0578027 1.04882 -3.25267 -0.0802348 -0.19674 -0.70832 
231 1 0.711555 0.540695 0.05039 0.655891 -3.27239 -0.0038006 0.0782589 -0.201988 
589 1 0.639035 0.462924 0.105249 0.597629 -3.30999 0.148006 0.241125 -0.215492 
590 1 0.708449 0.495408 0.0997363 2.49262 -3.27052 -0.448941 0.37284 0.466657 
186 1 0.631849 0.466448 0.00891846 2.1986 -3.27309 0.24234 -0.147266 -0.705595 
225 1 0.585331 0.514209 0.00554327 0.494332 -3.29336 -0.0733042 0.262317 -0.00390324 
190 1 0.70225 0.49905 0.00416724 0.657296 -3.32302 -0.383785 0.259244 -0.344421 
196 1 0.763508 0.491265 0.0495088 1.03024 -3.28447 -0.308501 0.213621 0.177465 
194 1 0.814431 0.486295 -0.0011979 0.400875 -3.30976 0.243684 0.143916 -0.068139 
235 1 0.827216 0.526141 0.0547023 1.14242 -3.34241 0.0262966 -0.0774508 -0.444085 
594 1 0.812928 0.486953 0.105135 2.02721 -3.28722 0.305066 -0.169264 -0.61348 
633 1 0.761394 0.536223 0.100001 3.10313 -3.22608 1.04721 -0.532099 0.2496 
200 1 0.876365 0.476223 0.0487649 0.497959 -3.32021 -0.519133 -0.234415 0.195864 
164 1 0.987864 0.461097 0.0494713 0.715325 -3.31215 0.22652 -0.381605 0.468424 
239 1 0.939929 0.508527 0.050406 0.337019 -3.31686 0.214674 0.480079 0.102107 
601 1 1.00357 0.499789 0.102453 0.476459 -3.2799 -0.575241 -0.206326 -0.0350493 
201 1 0.996997 0.499564 0.00358856 0.653655 -3.28294 0.655226 0.451544 -0.0934265 
198 1 0.932315 0.466916 0.000929292 0.305043 -3.27907 -0.423306 -0.305162 -0.29051 
637 1 0.886437 0.515189 0.102009 0.419431 -3.32305 -0.262605 0.143324 -0.210688 
598 1 0.935872 0.465699 0.102726 0.692807 -3.34667 -0.209253 0.0957824 -0.360651 
204 1 0.0112462 0.540583 0.0541837 0.990705 -3.24477 -0.949957 -0.239729 -0.382994 
243 1 0.0692086 0.575551 0.0522103 0.887218 -3.30147 0.891192 0.751363 -0.124221 
641 1 0.0143177 0.585837 0.100516 0.513733 -3.33547 0.0803445 -0.185945 0.321886 
244 1 0.0260154 0.627436 0.0508427 0.435869 -3.27227 -0.426563 -0.187271 0.0514876 
242 1 0.0785756 0.61967 0.00184445 0.326424 -3.38286 0.454979 -0.0106036 -0.194197 
248 1 0.137386 0.615754 0.0529316 0.455957 -3.32306 -0.587506 -0.502606 0.0108635 
642 1 0.0792898 0.621714 0.101796 0.425038 -3.32469 0.226332 -0.107496 -0.0543105 
245 1 0.132522 0.568993 0.00104901 1.10402 -3.25415 -0.810656 0.276627 0.30997 
247 1 0.186365 0.567345 0.0478568 1.34267 -3.25641 -0.106101 -0.225271 0.766572 
251 1 0.249628 0.601339 0.0542304 0.463709 -3.28751 -0.292556 0.267608 -0.356236 
249 1 0.188551 0.610838 0.000668749 0.888067 -3.31663 0.251759 -0.11258 0.0628151 
210 1 0.240007 0.561051 0.00107171 0.605643 -3.28782 -0.210042 -0.285468 -0.165424 
646 1 0.194678 0.608265 0.103112 0.387362 -3.31836 -0.312114 -0.0973298 -0.193178 
216 1 0.299066 0.554459 0.0530299 0.613578 -3.21801 0.355215 -0.185209 -0.22096 
255 1 0.363483 0.58713 0.050905 0.342681 -3.31727 0.155452 0.344324 0.262913 
653 1 0.305615 0.596256 0.103456 0.413925 -3.35225 0.254186 -0.216476 -0.0903476 
256 1 0.311745 0.635879 0.051509 0.539943 -3.30156 0.498431 0.325342 0.0335394 
253 1 0.303184 0.59422 0.00199383 0.285591 -3.26331 0.343513 0.306148 0.189539 
254 1 0.369652 0.628329 0.000268437 0.293201 -3.29808 0.369859 -0.0804041 0.0271231 
259 1 0.426664 0.62363 0.0504983 0.568907 -3.29543 0.317557 -0.29672 0.396436 
224 1 0.475485 0.572506 0.0564204 0.526053 -3.29453 0.149099 0.278964 -0.391652 
228 1 0.543039 0.605364 0.0570903 1.06442 -3.28988 -0.170271 0.35232 -0.284093 
625 1 0.531949 0.566271 0.104983 0.743932 -3.3227 0.0146299 -0.278773 0.253233 
622 1 0.485355 0.6209 0.104905 1.26979 -3.25252 -0.313863 -0.837335 -0.389493 
227 1 0.593009 0.559255 0.0550198 0.696448 -3.28818 -0.199547 -0.397577 -0.134397 
629 1 0.654182 0.549532 0.104257 0.562822 -3.30853 0.534141 -0.139376 0.0494507 
232 1 0.664122 0.587958 0.0547306 1.44382 -3.266 -0.408798 0.384557 -0.231565 
626 1 0.600381 0.596497 0.105149 0.803719 -3.31103 0.276752 0.620963 0.00989225 
271 1 0.724167 0.625193 0.0529021 0.440694 -3.28172 0.158152 0.0059972 -0.305388 
236 1 0.778648 0.575379 0.0491802 0.900705 -3.30414 -0.644758 0.0562601 0.236072 
275 1 0.842954 0.608182 0.053917 0.825959 -3.28599 -0.0509427 0.377375 -0.358678 
240 1 0.892828 0.560393 0.0522719 0.411624 -3.28452 -0.255114 -0.609464 -0.349837 
279 1 0.960373 0.589229 0.0476366 1.09901 -3.3351 0.293412 0.403559 0.167951 
638 1 0.952652 0.547857 0.101074 0.81866 -3.32257 -0.134681 0.319434 0.0773209 
677 1 0.901499 0.597939 0.0991464 0.622137 -3.2253 -0.0904618 -0.0311557 0.0342122 
283 1 0.087306 0.663858 0.0494176 0.544384 -3.17477 -0.0522178 -0.25548 0.363117 
284 1 0.0402377 0.715129 0.0523635 0.739569 -3.26793 -0.781016 -0.455522 -0.354039 
285 1 0.0921039 0.709292 -0.00236162 1.04562 -3.27342 0.229721 -0.0920756 -0.219504 
685 1 0.139693 0.663309 0.104484 2.30376 -3.29758 0.0618582 -0.492293 -0.231825 
246 1 0.146232 0.660246 0.00418069 1.6024 -3.32368 -0.103141 -0.196111 -0.450002 
682 1 0.092991 0.711407 0.100307 0.744234 -3.29288 0.0608303 -0.108278 0.369369 
281 1 0.032421 0.669736 0.00277581 0.34008 -3.28547 -0.196677 0.178489 -0.301043 
252 1 0.196497 0.651363 0.0593364 2.83938 -3.24577 0.374662 0.341696 -0.570818 
287 1 0.140108 0.702425 0.0476537 3.70648 -3.20589 1.39004 0.257903 0.573282 
289 1 0.212902 0.695484 0.00442298 1.84532 -3.26768 -0.83707 0.0749319 -0.568929 
250 1 0.253099 0.646471 0.00555545 1.26621 -3.30706 0.0705984 -0.350308 -0.327432 
650 1 0.260113 0.645838 0.102112 0.504501 -3.24405 -0.166035 -0.131093 -0.142194 
291 1 0.264322 0.686737 0.0505073 0.81818 -3.30137 0.794934 0.246256 0.334995 
290 1 0.277381 0.730712 0.00240134 1.03546 -3.24994 -0.593704 -0.53225 -0.0492612 
295 1 0.336138 0.724555 0.0519035 1.09489 -3.36328 -0.355363 -0.609245 0.137865 
260 1 0.378058 0.669755 0.0504094 0.96794 -3.30392 -0.425126 0.53929 0.249006 
658 1 0.389225 0.71782 0.105518 0.74083 -3.28433 -0.215571 -0.0772473 -0.35749 
293 1 0.325033 0.677318 -0.00222296 1.32483 -3.26827 -0.493253 0.257757 0.562612 
264 1 0.440995 0.707677 0.0507087 0.516253 -3.38633 0.0776594 0.149223 -0.0648799 
263 1 0.495613 0.659896 0.0520963 0.615939 -3.25217 -0.900118 -0.587957 -0.0115838 
258 1 0.434908 0.664234 0.0040852 0.701299 -3.3108 0.370658 0.19537 -0.631975 
262 1 0.503641 0.701293 0.000304899 0.712897 -3.32491 -0.56129 -0.507155 0.248297 
268 1 0.558558 0.688028 0.0567624 2.30272 -3.22289 0.867269 0.953295 -0.483151 
265 1 0.553021 0.651405 0.00170518 0.562287 -3.25143 -0.444698 -0.210169 -0.234454 
662 1 0.501881 0.703836 0.101961 0.733846 -3.31467 -0.402886 -0.50574 0.0558437 
267 1 0.609184 0.63894 0.0519179 0.579871 -3.31874 -0.0904513 -0.217535 0.237707 
266 1 0.615262 0.682493 0.00594459 1.25668 -3.2027 -0.0228346 0.0328292 -0.942453 
272 1 0.670113 0.675357 0.0507686 0.854626 -3.25334 0.919695 -0.332847 0.371254 
709 1 0.682938 0.716488 0.101071 0.424247 -3.2956 0.166499 0.308119 0.143136 
307 1 0.629053 0.722421 0.0499823 1.55159 -3.26415 -0.552141 0.621008 0.392569 
270 1 0.730747 0.667717 0.00234704 0.604262 -3.33085 0.0742564 0.0148532 -0.103524 
311 1 0.740104 0.709493 0.0533515 0.424738 -3.37011 0.0682933 0.0788116 -0.44452 
276 1 0.790244 0.658972 0.0505719 0.322572 -3.36741 0.412568 0.200187 0.20269 
315 1 0.859186 0.693988 0.0516311 0.382609 -3.37343 -0.193029 -0.222728 0.171795 
313 1 0.801207 0.699607 0.00358291 1.0039 -3.30484 -0.49118 0.141866 0.00207295 
274 1 0.847712 0.650398 -0.00380237 1.48367 -3.13643 0.615937 0.614303 0.925452 
280 1 0.909975 0.642707 0.0487117 0.505445 -3.33089 -0.328157 -0.00877759 0.0727206 
319 1 0.973052 0.679041 0.0491644 0.448926 -3.33496 0.0887076 -0.0491124 0.25776 
278 1 0.969697 0.632908 0.00138563 0.741504 -3.33066 -0.13633 -0.108445 -0.00459184 
317 1 0.913199 0.684774 0.00211251 0.332789 -3.32948 0.136044 0.303045 -0.214233 
288 1 0.0970457 0.750372 0.0461534 1.03967 -3.21851 0.599068 0.670451 0.446477 
323 1 0.0524944 0.800096 0.0484193 0.357338 -3.32836 -0.122255 0.142461 0.349737 
721 1 0.0433932 0.758207 0.100526 0.415552 -3.3451 0.320433 0.404614 0.0515386 
325 1 0.104667 0.794501 -0.00114664 0.439324 -3.26677 -0.0952838 -0.365938 -0.154605 
292 1 0.211913 0.739442 0.049511 0.813057 -3.29936 0.440311 -0.359538 0.53738 
327 1 0.159456 0.787936 0.0509253 1.25655 -3.33188 0.613186 0.00613174 -0.343604 
690 1 0.223798 0.783498 0.0971032 1.05047 -3.28652 0.0607493 -0.590391 0.200371 
286 1 0.159819 0.743032 0.00231378 1.48768 -3.26488 -0.693963 0.0414498 -0.684448 
296 1 0.283537 0.772298 0.0486111 0.427473 -3.35197 0.0420804 0.130104 0.316416 
333 1 0.288086 0.81452 -0.001371 0.191394 -3.31758 -0.249495 -0.268883 -0.0762211 
331 1 0.234582 0.822192 0.049818 0.773966 -3.34211 -0.507924 0.127729 -0.0999468 
694 1 0.290904 0.814739 0.102853 0.435006 -3.35007 0.0474945 0.128807 -0.207505 
300 1 0.347827 0.808261 0.0472545 0.527833 -3.30454 -0.575267 -0.25496 0.274551 
299 1 0.396232 0.760664 0.050697 0.581224 -3.29048 0.0484775 -0.21626 -0.027334 
698 1 0.403404 0.801713 0.102435 0.435136 -3.15726 0.11608 -0.575741 -0.179825 
294 1 0.339517 0.762312 -0.00199621 0.522399 -3.23465 0.153215 0.712172 0.148033 
298 1 0.402354 0.798602 -0.00306577 0.316626 -3.3214 0.0225851 0.330945 0.055368 
304 1 0.461603 0.793234 0.0470594 0.556652 -3.30692 -0.116444 0.128531 0.344432 
701 1 0.454555 0.749716 0.0986036 0.982936 -3.28054 -0.159957 0.491702 0.351441 
301 1 0.449889 0.750647 -0.000788566 0.216649 -3.31354 0.217426 -0.0338642 0.170934 
303 1 0.507529 0.744287 0.0494361 0.521963 -3.28542 0.00561782 -0.326201 -0.026132 
702 1 0.517158 0.786449 0.101427 0.403981 -3.34017 0.138594 -0.099381 -0.0716356 
705 1 0.568035 0.735824 0.0965846 1.47775 -3.33429 -0.090301 0.0556269 0.250026 
305 1 0.566465 0.733207 0.0044398 0.729873 -3.29868 0.332389 0.203057 -0.14992 
302 1 0.518022 0.787051 0.00117905 0.302388 -3.31451 -0.104791 -0.126161 -0.469358 
308 1 0.57294 0.777978 0.0496242 0.603354 -3.30505 0.301533 -0.0111567 0.30737 
312 1 0.689195 0.761858 0.0488731 0.515796 -3.3152 0.20479 -0.391226 -0.023776 
347 1 0.640804 0.811644 0.0508438 0.263822 -3.31689 -0.189957 0.0368624 0.0605901 
706 1 0.636835 0.766982 0.0979851 1.11475 -3.27919 -0.346799 0.294595 0.0412296 
349 1 0.692081 0.801939 -0.000440572 1.35103 -3.28718 0.841898 0.545637 0.232688 
745 1 0.585795 0.819406 0.100833 0.522514 -3.3062 -0.520529 -0.10663 -0.246618 
749 1 0.698967 0.804342 0.099368 0.430437 -3.30633 -0.0920151 -0.27077 0.0357185 
351 1 0.754929 0.79455 0.0508703 0.460986 -3.34872 0.166829 0.31158 -0.423416 
316 1 0.806468 0.747549 0.051364 1.5368 -3.21871 -0.304638 -1.36487 -0.389401 
714 1 0.86681 0.734239 0.0996045 0.982745 -3.31487 0.136088 -0.0742935 -0.171751 
353 1 0.816022 0.781653 0.0022333 1.60514 -3.21675 -0.265464 0.741071 -0.289104 
314 1 0.862629 0.735675 0.00124844 0.403426 -3.31836 0.557918 -0.269746 0.124277 
355 1 0.8723 0.779031 0.0467923 0.553997 -3.15454 0.228299 0.000187764 0.20111 
320 1 0.924806 0.729792 0.05068 0.451817 -3.2751 -0.678174 -0.668607 0.0966596 
359 1 0.985326 0.762404 0.0507335 0.798794 -3.24237 0.745807 0.644683 -0.0945255 
757 1 0.926915 0.773587 0.093809 1.62686 -3.25396 0.0357357 -0.302324 0.829146 
328 1 0.119066 0.83716 0.0492034 0.834947 -3.26382 -0.448475 -0.278951 0.159671 
363 1 0.0673327 0.887993 0.0484367 0.447439 -3.30988 -0.219945 -0.17608 0.126189 
365 1 0.127864 0.87829 -0.00408357 1.86712 -3.18658 -0.64073 -0.0713625 0.751371 
332 1 0.176002 0.873516 0.0514287 1.08684 -3.2902 0.531895 -0.0640187 0.220038 
330 1 0.234099 0.862277 -0.000258212 0.778359 -3.3657 0.166006 -0.0588526 0.15753 
336 1 0.245347 0.904051 0.0516785 0.817956 -3.29104 0.0833582 0.215705 0.0603829 
326 1 0.166897 0.827326 -0.00424418 1.40932 -3.27875 0.983275 -0.0210482 0.30875 
335 1 0.297758 0.858338 0.0512959 0.406622 -3.29071 -0.441197 -0.619201 -0.0974721 
340 1 0.359823 0.890274 0.0520294 0.461366 -3.25432 0.261067 0.293906 -0.254898 
337 1 0.351912 0.848849 -0.00315524 0.481814 -3.2772 0.252236 0.00895698 0.422402 
339 1 0.409707 0.84109 0.0473419 0.471042 -3.27039 0.215235 0.357325 0.142374 
738 1 0.420179 0.88242 0.100087 0.405702 -3.299 0.306743 0.239919 -0.137619 
334 1 0.301257 0.900927 -0.000514922 0.402123 -3.28233 -0.109438 -0.170024 0.537784 
344 1 0.476312 0.877553 0.0462001 0.954965 -3.29185 -0.259445 -0.365121 0.77119 
343 1 0.528859 0.82738 0.0503926 0.59752 -3.35331 -0.190216 0.193182 -0.0282336 
383 1 0.54008 0.911735 0.0511602 0.305545 -3.31357 0.13313 0.00580356 0.0157607 
742 1 0.530697 0.868258 0.100205 0.612364 -3.3946 -0.0121058 -0.0245016 0.0746042 
348 1 0.592039 0.866091 0.0490354 1.34519 -3.33284 -0.292235 -0.506722 -0.0909593 
352 1 0.705828 0.847394 0.0499228 0.47413 -3.32156 0.145658 -0.170254 0.136013 