ITEM: TIMESTEP
12000
ITEM: NUMBER OF ATOMS
4000
ITEM: BOX BOUNDS pp pp pp
2.3639340918136971e+00 3.8136065908185728e+01
-2.3300351975175677e+00 4.2830035197516594e+01
-7.6559183717002444e-01 4.1265591837170035e+01
ITEM: ATOMS id type xs ys zs c_csym c_peratom fx fy fz 
8 1 0.0579227 0.0909814 0.0458843 1.31998 -3.32198 -0.192787 0.465381 0.476004 
4 1 0.988374 0.0584726 0.0438694 7.00103 -3.20905 0.236022 -0.361266 0.783731 
405 1 0.0456149 0.0475885 0.0919926 1.33578 -3.31362 0.068961 0.393601 0.267637 
12 1 0.16305 0.0836692 0.0489333 0.93324 -3.33162 0.728221 -0.220085 -0.291326 
11 1 0.217446 0.0317624 0.0457849 0.254665 -3.31389 -0.225337 0.300931 0.240592 
7 1 0.107493 0.0422117 0.050069 1.10812 -3.29575 -0.437355 0.189643 -0.226776 
406 1 0.110477 0.0916493 0.0980383 1.76726 -3.27234 -0.176833 -0.89147 -0.235533 
409 1 0.160879 0.0396482 0.0952499 0.650301 -3.29143 -0.039699 -0.514576 -0.257951 
10 1 0.223278 0.076606 0.997431 0.162898 -3.38215 -0.227011 0.238385 0.0244615 
6 1 0.112479 0.0899479 0.998701 0.685276 -3.33345 0.0881913 -0.305881 -0.097484 
9 1 0.158483 0.0392236 0.998586 0.416954 -3.36144 0.174825 0.117498 -0.0531008 
16 1 0.279447 0.0719971 0.0445837 0.325767 -3.33034 0.0754135 -0.31305 0.0410785 
20 1 0.396349 0.0616696 0.0455276 0.775594 -3.35293 -0.407813 -0.513735 -0.0797496 
24 1 0.501825 0.0507905 0.045671 0.808217 -3.2872 0.36669 0.33412 -0.0817285 
19 1 0.443705 0.00826951 0.0418579 1.44927 -3.30126 -0.768043 0.561788 0.54338 
461 1 0.507779 0.0939089 0.0946152 0.263425 -3.26608 0.0605351 -0.0542441 0.157063 
21 1 0.497943 0.00597708 0.997246 0.712645 -3.2466 0.288099 -0.264857 -0.325624 
28 1 0.621413 0.0365577 0.0401668 0.755896 -3.33914 -0.0912808 0.288438 -0.0441747 
25 1 0.613386 0.992353 0.99229 0.57209 -3.30004 -0.364709 0.0429972 0.238474 
23 1 0.555947 0.00570918 0.0420141 2.10011 -3.33578 -0.180112 -0.491502 0.246496 
422 1 0.554309 0.0456909 0.0946528 0.745731 -3.30824 0.425366 -0.14632 0.0607253 
465 1 0.625366 0.0762556 0.0938675 1.14054 -3.27909 -0.322711 0.561209 -0.469488 
32 1 0.734858 0.0187973 0.0500328 1.5535 -3.274 -0.574284 0.969518 -0.427195 
67 1 0.686379 0.0702865 0.0398967 0.638223 -3.35516 0.110922 0.0422941 0.349369 
27 1 0.666207 0.985775 0.045101 0.246153 -3.27768 0.195491 0.437432 0.367925 
469 1 0.737805 0.0684287 0.0930047 0.605462 -3.31342 -0.0964589 0.209993 -0.0746215 
429 1 0.721603 0.981638 0.0987378 0.409138 -3.29544 -0.115047 -0.493978 0.046393 
26 1 0.681338 0.0225353 0.993694 1.1841 -3.3263 -0.00306557 0.489875 0.039358 
36 1 0.801804 0.0546388 0.0389463 1.76025 -3.32682 -0.0563336 0.201148 0.516012 
35 1 0.85013 0.0036182 0.0411202 1.9277 -3.27509 0.249109 0.0591431 0.176946 
434 1 0.851374 0.0469261 0.0900543 7.90193 -3.17727 -0.0735188 0.443048 -0.827683 
401 1 0.979241 0.0158918 0.0954368 7.47404 -3.27216 0.297243 -0.00269655 -0.306209 
40 1 0.915887 0.0403938 0.0439278 7.71962 -3.30925 0.175032 -0.00261611 0.280864 
39 1 0.967789 0.983569 0.042823 2.33058 -3.24786 0.403036 0.122833 -0.0915994 
79 1 0.937164 0.103 0.0538571 8.11048 -3.30835 -0.110749 -0.0747494 0.266818 
437 1 0.900722 0.996688 0.0907881 4.54385 -3.2604 0.253296 -0.123943 0.296739 
477 1 0.876031 0.11542 0.0985099 6.12591 -3.23162 0.58487 0.0269396 -0.0192361 
438 1 0.921187 0.0534795 0.111458 7.60582 -3.26433 0.189496 0.557924 -0.0602914 
43 1 0.00291821 0.139818 0.0516855 0.724334 -3.33362 0.470565 0.0386206 0.116416 
48 1 0.069229 0.177826 0.0505694 0.499115 -3.26479 0.121592 0.267968 0.00445611 
45 1 0.0634138 0.137938 1.00253 0.620078 -3.28712 0.027829 -0.553221 -0.168164 
42 1 0.0150312 0.183282 0.00217018 0.821915 -3.27554 -0.0513997 0.365986 0.397875 
47 1 0.119194 0.131916 0.0502144 0.351212 -3.26497 -0.275913 0.0951334 -0.136024 
52 1 0.180918 0.167617 0.0460441 1.61693 -3.30098 0.476525 0.586976 0.700899 
49 1 0.17461 0.127285 0.999611 0.528867 -3.30347 0.246247 -0.457734 -0.208788 
51 1 0.232762 0.120434 0.0441949 0.902445 -3.3343 -0.416135 -0.0215035 0.297483 
50 1 0.241122 0.165276 0.998565 0.797974 -3.29458 -0.495403 -0.0869388 0.460778 
46 1 0.125102 0.175748 1.00437 0.76475 -3.27616 -0.021539 -0.118935 -0.645906 
55 1 0.339664 0.109224 0.0482065 0.72924 -3.3128 0.296971 0.194472 -0.364461 
56 1 0.291821 0.160939 0.0512399 0.506009 -3.31584 0.12685 0.00450547 -0.336879 
95 1 0.354736 0.198759 0.0520452 0.525692 -3.33271 -0.649203 0.117768 0.0720089 
453 1 0.282412 0.11487 0.0936777 0.760224 -3.32771 0.133459 -0.2903 0.638512 
450 1 0.23572 0.16474 0.0988238 0.611386 -3.288 -0.677962 0.216124 -0.42518 
454 1 0.347814 0.151629 0.0997176 1.03253 -3.3372 0.101352 0.51104 -0.216622 
493 1 0.295566 0.202368 0.0992031 0.664974 -3.29129 0.414814 0.589145 0.0239894 
59 1 0.453113 0.0997231 0.0407356 1.33577 -3.27643 0.115503 -0.108103 0.574449 
60 1 0.400136 0.147766 0.0431991 1.4742 -3.24616 0.499556 -0.506184 1.08493 
97 1 0.40678 0.191165 1.00441 1.62425 -3.23008 0.554833 0.99526 -0.787865 
99 1 0.464949 0.183188 0.0485549 0.743947 -3.30252 0.0509054 0.459712 -0.42425 
457 1 0.398029 0.105612 0.0934228 0.577936 -3.30802 -0.00831811 0.0571786 0.105394 
458 1 0.458611 0.142108 0.0964763 0.49485 -3.27358 -0.490707 -0.0898497 -0.216309 
63 1 0.571598 0.0876717 0.043377 0.917385 -3.32286 -0.14015 -0.753786 -0.194995 
64 1 0.516892 0.129818 0.0453704 1.69645 -3.24482 0.327606 0.90382 -0.0830246 
68 1 0.63492 0.119969 0.0374965 1.14802 -3.2871 0.140753 -0.0697751 0.459497 
462 1 0.576044 0.12679 0.0936231 1.07661 -3.332 -0.138747 0.260902 -0.0802328 
501 1 0.518528 0.176191 0.093048 1.05655 -3.26567 0.726006 0.352787 0.109932 
103 1 0.579257 0.172192 0.044703 0.763223 -3.34714 0.0261673 -0.489231 0.245204 
505 1 0.636332 0.166756 0.0936753 0.768627 -3.31313 -0.111517 0.00231421 -0.217236 
71 1 0.754691 0.109901 0.0403828 1.00049 -3.29259 -0.324684 -0.392238 0.182451 
72 1 0.697586 0.158208 0.0428852 0.881047 -3.31266 0.206931 0.130988 -0.204751 
107 1 0.644766 0.204608 0.0412961 1.13745 -3.30565 0.205281 0.424248 0.177558 
509 1 0.70539 0.205553 0.0861403 7.68543 -3.29444 -0.404207 -0.338371 -0.343667 
466 1 0.688258 0.118606 0.0907767 0.56633 -3.32203 0.124235 -0.101943 0.19114 
470 1 0.76148 0.154325 0.085659 7.59618 -3.31507 -0.620825 -0.0147396 -0.0231201 
75 1 0.861119 0.095966 0.0383568 8.27552 -3.28723 0.324185 -0.394897 0.194422 
76 1 0.817049 0.149343 0.0363197 7.0795 -3.27247 -0.422071 -0.102874 -0.147272 
513 1 0.780076 0.217363 0.0938047 0.872984 -3.18043 0.339797 -0.399216 0.447782 
115 1 0.844631 0.206483 0.0468818 6.5427 -3.30766 -0.00269035 0.294281 -0.190885 
473 1 0.805314 0.0996442 0.0894401 6.81588 -3.27455 -0.231732 -0.0522262 -0.0995236 
474 1 0.832704 0.168565 0.0953328 1.03537 -3.22079 0.302116 0.11078 0.553878 
44 1 0.956448 0.191075 0.0506794 0.392205 -3.27405 0.0608206 -0.169329 -0.0743006 
80 1 0.890482 0.155559 0.0516173 6.94616 -3.28815 0.303541 -0.000172352 -0.240541 
478 1 0.902057 0.197626 0.098366 0.972702 -3.28524 0.0302027 -0.0951341 0.412658 
83 1 0.0234864 0.229003 0.0519297 0.752826 -3.28604 -0.11139 -0.1384 -0.270018 
88 1 0.0791587 0.270152 0.0534259 0.664603 -3.37531 0.563962 0.303386 0.353001 
85 1 0.0774541 0.223079 0.00447294 0.388591 -3.29118 0.195842 0.222007 -0.136726 
87 1 0.128878 0.219855 0.0508757 0.460106 -3.32166 0.119688 0.223498 0.504615 
91 1 0.242173 0.211167 0.0527418 0.346445 -3.36769 -0.146973 -0.185591 -0.386443 
92 1 0.193718 0.262422 0.0522974 0.476968 -3.29562 -0.080753 -0.0138258 0.108406 
86 1 0.140185 0.265896 0.00552909 0.941788 -3.30245 -0.667658 -0.218461 -0.358073 
489 1 0.180896 0.218798 0.0996056 0.99684 -3.32922 0.357372 -0.110724 -0.187335 
490 1 0.246446 0.253817 0.100542 0.954336 -3.30436 -0.187819 0.503245 0.275567 
486 1 0.139238 0.271062 0.100173 1.52339 -3.3673 -0.450155 -0.35683 -0.0935981 
129 1 0.191458 0.307134 0.00386032 1.49483 -3.27951 0.960319 0.259816 -0.297058 
90 1 0.247115 0.257053 0.00269543 0.348621 -3.32559 -0.198964 -0.136544 0.195671 
96 1 0.299926 0.253747 0.0537121 1.01379 -3.32634 0.328574 -0.633543 -0.171649 
494 1 0.356667 0.248451 0.102979 1.42158 -3.2929 -0.100945 -0.785717 -0.492615 
100 1 0.411958 0.237988 0.0498175 0.769505 -3.26261 0.534285 -0.185681 0.107721 
139 1 0.477186 0.277864 0.0522323 3.52381 -3.30718 -0.0189001 -0.370656 -0.138611 
537 1 0.420111 0.279107 0.0969435 1.54481 -3.29018 0.345357 0.436616 0.319164 
104 1 0.533275 0.222902 0.0448059 1.48134 -3.33231 -0.435124 -0.166442 0.475928 
143 1 0.544516 0.308014 0.0415694 0.70777 -3.26818 0.228301 -0.468436 -0.0286974 
108 1 0.598427 0.260717 0.0403276 1.11607 -3.2856 -0.232143 -0.569956 -0.0806113 
502 1 0.581649 0.217432 0.0967834 1.85662 -3.25332 0.120866 0.277464 -0.741078 
545 1 0.603158 0.304021 0.0857937 7.90524 -3.29034 0.409854 -0.0480339 -0.0132259 
112 1 0.712172 0.250572 0.0342051 7.27566 -3.28908 -0.177286 -0.440821 -0.0824523 
147 1 0.662409 0.296532 0.0329009 7.24357 -3.3395 0.215769 -0.0606006 0.425706 
506 1 0.649361 0.253611 0.0871013 7.86801 -3.3292 0.372553 -0.0824077 -0.195658 
549 1 0.687236 0.313471 0.0994636 5.67086 -3.23509 -0.0736494 -0.393448 -0.34313 
111 1 0.762719 0.199702 0.0342618 7.90466 -3.28476 -0.0171759 -0.429696 0.0316223 
151 1 0.745621 0.306593 0.0512393 5.50634 -3.26071 -0.278558 0.0635718 -0.446743 
116 1 0.790692 0.254463 0.0459197 6.23599 -3.22285 0.368353 0.329135 0.0899238 
510 1 0.735198 0.263857 0.0929788 2.72024 -3.19926 -0.600594 0.163716 0.773723 
81 1 0.963426 0.236992 0.00937094 1.37777 -3.25878 0.237409 -0.425993 -0.461647 
481 1 0.966042 0.231185 0.0949073 3.70427 -3.24186 0.142562 0.449139 1.02084 
84 1 0.975367 0.275534 0.0551011 2.9482 -3.20214 -0.168089 1.14773 0.0136854 
119 1 0.907424 0.245582 0.0557499 2.2202 -3.23778 -0.331981 -0.693283 -0.058889 
120 1 0.852163 0.290332 0.0556447 2.26185 -3.34281 0.614438 0.0930168 0.211092 
118 1 0.917285 0.284922 0.0117027 2.27899 -3.2161 -0.145481 0.281299 -0.515588 
123 1 0.03021 0.323379 0.0594877 0.857916 -3.29302 -0.221894 -0.226149 -0.594504 
125 1 0.0882074 0.319897 0.00964258 1.26295 -3.30523 0.0445467 -0.288689 -0.106479 
128 1 0.0863664 0.362917 0.0606965 1.73045 -3.26452 0.840433 0.42491 -0.906479 
522 1 0.0331033 0.369155 0.104812 0.218049 -3.30224 -0.446351 0.0912553 0.415887 
127 1 0.143119 0.313356 0.0525648 0.502372 -3.28501 -0.363488 -0.164739 0.455909 
132 1 0.199097 0.353517 0.0538014 0.798512 -3.30083 0.532675 -0.156297 0.0976613 
529 1 0.200113 0.311381 0.0996414 1.72442 -3.30333 -0.597251 -0.570736 0.578253 
526 1 0.14532 0.360167 0.104694 0.597217 -3.32964 -0.0992297 -0.345827 -0.0452752 
130 1 0.259555 0.34182 0.00118322 2.28262 -3.27979 -0.918539 0.12442 0.541843 
135 1 0.362205 0.288651 0.0517216 0.744371 -3.30425 0.0897121 0.137821 0.33284 
133 1 0.306993 0.296368 0.00416118 0.652847 -3.27537 0.255629 -0.16325 0.060899 
131 1 0.253489 0.30179 0.0557717 0.751097 -3.32593 -0.12723 0.185365 -0.452594 
136 1 0.31449 0.33917 0.0566066 0.528602 -3.30177 -0.170744 -0.429697 0.172418 
175 1 0.374915 0.377644 0.0578081 5.7574 -3.29959 0.377818 0.0485403 -0.456587 
573 1 0.320813 0.384015 0.103858 0.205889 -3.27638 -0.165488 -0.0513857 0.119659 
530 1 0.25776 0.348022 0.104103 0.292516 -3.26777 -0.0151891 -0.0333997 0.0355676 
134 1 0.368313 0.335298 0.00865762 6.40595 -3.30733 -0.0541475 -0.106153 -0.1267 
140 1 0.429249 0.328173 0.0583608 5.62539 -3.30809 -0.238372 -0.0530772 -0.545245 
144 1 0.496765 0.356554 0.0409477 1.76594 -3.25837 -0.156589 -0.574861 0.64124 
148 1 0.618193 0.345578 0.0336624 6.29278 -3.29657 -0.634315 -0.0530542 0.429497 
542 1 0.559358 0.351042 0.0857203 9.65244 -3.28213 -0.00244482 0.271746 0.019099 
183 1 0.560844 0.395231 0.0389764 7.24289 -3.24323 0.490657 -0.804316 -0.183002 
585 1 0.585214 0.408905 0.0975968 6.24527 -3.2702 0.34024 0.0185961 0.337291 
581 1 0.506122 0.396257 0.0942654 6.55725 -3.31395 -0.0722303 0.0756715 -0.410131 
152 1 0.694998 0.354527 0.0529522 7.48761 -3.2697 0.0963418 -0.373243 -0.522945 
187 1 0.646367 0.400099 0.054425 8.17986 -3.2709 -0.229214 0.844437 -0.712259 
546 1 0.641596 0.361706 0.100036 5.25484 -3.22433 -0.676829 -0.164178 0.384093 
155 1 0.808075 0.339664 0.0585156 1.16198 -3.26247 -0.0378962 -0.117518 0.111097 
156 1 0.754244 0.389824 0.0508116 1.83643 -3.21773 -0.0212536 -0.430806 0.348024 
554 1 0.812927 0.381971 0.109674 1.38644 -3.3227 -0.340671 0.430306 -0.335689 
154 1 0.812577 0.379014 0.0100742 2.23148 -3.27748 0.251426 0.383719 -0.413993 
159 1 0.920636 0.332217 0.055448 0.805271 -3.2946 -0.212617 -0.290016 0.136474 
121 1 0.975112 0.32381 0.00996054 0.713829 -3.29748 0.262232 -0.157363 0.276724 
124 1 0.981435 0.375663 0.0523577 1.89795 -3.30733 -0.509451 -0.689649 0.671701 
160 1 0.865887 0.376751 0.0612156 1.30302 -3.24252 -0.0298348 0.300856 -0.59775 
157 1 0.866421 0.332803 0.00665586 1.58179 -3.3363 -0.142202 -0.142422 0.0480733 
557 1 0.86648 0.334047 0.109629 1.48149 -3.30706 -0.560057 -0.233585 -0.390581 
558 1 0.920701 0.376958 0.10173 1.10075 -3.28372 0.673052 0.252312 0.50623 
158 1 0.921186 0.376091 0.0109032 1.73492 -3.21893 0.184909 -0.261524 0.237535 
163 1 0.0394184 0.410935 0.0573519 0.278081 -3.30166 0.084249 0.42913 -0.0315992 
165 1 0.0962101 0.403878 0.00513697 0.904802 -3.32847 0.054811 0.0903047 0.58358 
168 1 0.0982957 0.449458 0.0578164 0.444564 -3.34361 0.204235 0.092324 -0.087716 
162 1 0.0466339 0.453384 0.00959331 0.248178 -3.31029 -0.147219 0.0901163 0.174002 
562 1 0.0403668 0.460304 0.108354 0.800466 -3.29398 0.205641 -0.568959 -0.268554 
167 1 0.154695 0.403501 0.0577415 0.799752 -3.32556 -0.536733 -0.143648 -0.286661 
171 1 0.263974 0.386841 0.056717 0.766811 -3.27269 -0.339997 0.35249 -0.0637914 
172 1 0.215344 0.442325 0.054282 0.841722 -3.29008 -0.126974 -0.458966 0.580337 
166 1 0.158631 0.443593 0.0089156 0.419253 -3.32294 -0.0871639 0.170248 -0.035555 
169 1 0.210505 0.393585 0.00706259 0.763237 -3.31757 -0.0639038 0.0521573 -0.220374 
173 1 0.313391 0.380774 0.0109026 9.15606 -3.18809 0.353987 0.724585 -0.347007 
176 1 0.326396 0.426374 0.0534674 2.98564 -3.23247 -0.497152 -0.143958 0.338411 
170 1 0.267881 0.432717 0.0075937 7.06567 -3.2848 -0.285485 -0.0291069 -0.193561 
174 1 0.336282 0.449766 0.994346 6.93457 -3.24128 0.457083 0.520276 -0.257034 
213 1 0.293161 0.504532 0.993888 5.64414 -3.32399 0.192188 -0.126648 0.00940013 
179 1 0.443602 0.402624 0.037797 6.24013 -3.25461 0.0174561 -0.281024 0.634269 
180 1 0.390895 0.447991 0.0377701 6.07707 -3.25684 0.911869 0.338066 0.439057 
578 1 0.455781 0.443796 0.0875561 9.59438 -3.37653 -0.252273 0.157171 -0.0109906 
219 1 0.463837 0.490575 0.0405239 7.56384 -3.29164 0.126996 -0.239084 0.218562 
577 1 0.436138 0.372324 0.101947 5.31226 -3.30576 -0.0418561 0.34706 -0.361017 
178 1 0.456504 0.444775 0.995316 0.600269 -3.27196 -0.0417128 0.505137 -0.124294 
217 1 0.406458 0.495396 0.995267 0.486927 -3.31443 -0.147379 -0.46587 -0.170385 
621 1 0.491359 0.507116 0.102665 7.82011 -3.23562 -0.536424 0.0143343 0.00203943 
184 1 0.519731 0.442419 0.0409589 7.6791 -3.23062 -0.983166 0.252763 -0.360962 
188 1 0.595072 0.450868 0.0509999 5.97235 -3.29583 0.023588 -0.115243 0.163023 
582 1 0.53464 0.45607 0.0997388 7.52533 -3.24551 0.427187 0.113148 0.204209 
223 1 0.543316 0.503733 0.057075 7.82988 -3.28524 0.228104 -0.222592 -0.346971 
191 1 0.709069 0.439587 0.0548175 0.841263 -3.31226 -0.447564 0.283838 0.366638 
192 1 0.653991 0.487254 0.054628 0.730575 -3.26895 0.426027 0.231612 0.0777597 
190 1 0.707534 0.485515 0.00568568 1.09594 -3.34472 0.327002 0.174311 0.127986 
195 1 0.813688 0.423832 0.0570217 2.43149 -3.25571 0.4729 0.561847 0.0184871 
193 1 0.759873 0.43724 0.00945385 1.35303 -3.25346 0.265447 0.0363242 -0.342875 
196 1 0.771689 0.480056 0.0641009 3.96618 -3.24916 -0.742241 -0.552129 -0.389853 
594 1 0.822021 0.479953 0.112387 2.07652 -3.25828 0.246472 -0.260607 -0.689568 
194 1 0.820846 0.472432 0.00943779 0.466552 -3.34875 0.243988 0.0250541 -0.0342667 
197 1 0.870557 0.420662 0.010294 0.554985 -3.33959 -0.0537347 0.53032 -0.0717357 
164 1 0.987696 0.461031 0.0608934 0.567217 -3.33232 0.0468103 0.0780062 -0.448174 
161 1 0.985731 0.416404 0.00597633 1.0473 -3.2815 0.0490483 -0.144229 0.380347 
199 1 0.927565 0.422518 0.0564282 0.573444 -3.32558 0.0596765 0.0136833 -0.0283892 
200 1 0.876345 0.4706 0.0569872 0.480789 -3.33638 0.0306429 0.319198 -0.0109224 
598 1 0.931637 0.472289 0.108792 0.805333 -3.35241 -0.338721 -0.111312 -0.218455 
637 1 0.879353 0.524013 0.110201 2.39534 -3.3066 0.0319004 -0.755376 -0.275179 
198 1 0.936007 0.46732 0.00783201 1.14775 -3.33924 -0.504082 -0.600022 0.3903 
205 1 0.10523 0.491008 0.0104469 0.792403 -3.34721 0.298151 0.460853 0.250433 
203 1 0.047489 0.502594 0.0597561 0.678666 -3.312 0.0986346 -0.1619 -0.275484 
208 1 0.109734 0.539478 0.0606417 0.501045 -3.29754 -0.0863543 -0.183744 -0.541575 
602 1 0.0567571 0.54471 0.10984 0.873103 -3.32764 -0.328882 0.567525 -0.397582 
243 1 0.0624156 0.589323 0.0573813 0.467701 -3.35031 -0.0748876 0.0210812 0.394852 
605 1 0.102864 0.49532 0.102708 1.35652 -3.27037 0.517712 -0.151183 0.505922 
202 1 0.0587689 0.544592 0.00595874 1.17043 -3.31561 -0.0156291 -0.118521 0.669537 
207 1 0.164998 0.489157 0.0579162 0.461582 -3.32598 -0.323651 0.189805 0.0656317 
212 1 0.230523 0.532631 0.0604532 7.31429 -3.32065 -0.300789 -0.579312 -0.0603032 
606 1 0.164176 0.535153 0.106533 1.1119 -3.27815 0.452045 -0.683824 0.682894 
206 1 0.168698 0.534845 0.0126337 7.5281 -3.33665 -0.0289425 -0.32439 0.224454 
249 1 0.192089 0.596123 1.00357 7.61435 -3.30976 0.29193 0.515382 -0.365571 
215 1 0.347293 0.50271 0.0401414 2.48844 -3.2825 0.530381 -0.498091 0.215018 
211 1 0.277854 0.477263 0.0528323 6.16867 -3.29928 0.0687425 0.316248 0.360503 
216 1 0.303551 0.549035 0.0443171 5.81285 -3.27441 -0.098683 0.156844 0.0753121 
255 1 0.365261 0.586529 0.0404969 7.37515 -3.26509 -0.0478952 0.502853 0.280112 
614 1 0.358755 0.549749 0.0943779 6.00761 -3.30115 -0.308415 -0.384815 -0.300219 
214 1 0.362611 0.545656 0.991777 1.39277 -3.23128 -0.804533 -0.443332 0.257477 
220 1 0.415158 0.540231 0.0409944 6.76787 -3.26069 -0.0619505 -0.266676 -0.122751 
618 1 0.433552 0.557449 0.10026 7.70295 -3.1523 0.283584 -0.440966 -0.0673236 
259 1 0.439065 0.597789 0.0528729 7.54613 -3.29756 0.30434 0.627651 -0.134042 
657 1 0.386343 0.606477 0.104562 7.47961 -3.27477 -0.103319 0.337978 -0.50934 
218 1 0.470594 0.532543 0.992687 7.63959 -3.30749 -0.0238655 0.480432 -0.0805276 
257 1 0.419372 0.585802 0.98983 7.94344 -3.34 0.576127 0.277354 0.065764 
224 1 0.493657 0.550401 0.05513 7.24486 -3.33872 0.0067762 0.303332 -0.114133 
228 1 0.554165 0.593923 0.0570962 0.696959 -3.31871 -0.309174 -0.435541 -0.0834132 
227 1 0.604897 0.541535 0.0581651 0.527113 -3.35195 -0.0151772 0.0609678 0.116202 
231 1 0.718979 0.527079 0.0595281 1.34069 -3.36035 -0.064177 0.141623 -0.527657 
232 1 0.668704 0.579201 0.0552897 0.922529 -3.33422 -0.198566 0.021753 0.218264 
229 1 0.657508 0.536168 0.00843936 0.80421 -3.29069 0.553466 -0.355848 0.0332706 
226 1 0.608534 0.582578 0.00930291 1.08389 -3.33366 0.0141735 0.538332 -0.264884 
633 1 0.773322 0.525907 0.1096 0.805334 -3.31513 -0.305896 0.457041 -0.314376 
235 1 0.822321 0.518916 0.0535819 2.80182 -3.25957 0.560547 0.517703 0.525766 
236 1 0.774586 0.569473 0.0590273 0.508384 -3.37815 0.185833 -0.0179581 0.028681 
275 1 0.836671 0.613427 0.0602472 0.595543 -3.3164 0.147945 -0.422112 -0.118857 
233 1 0.768746 0.523495 0.00175844 3.31228 -3.23005 0.20131 -0.344531 1.32596 
239 1 0.944025 0.514137 0.0575525 1.35988 -3.30595 -0.818216 -0.407481 0.249592 
237 1 0.881779 0.516372 0.0118034 0.813524 -3.29089 0.389208 -0.36439 0.0560089 
204 1 0.000329004 0.551386 0.0573565 0.426747 -3.29679 0.467075 0.263902 0.372283 
240 1 0.890056 0.560708 0.056817 1.38227 -3.34974 -0.217397 0.0463721 0.52537 
277 1 0.891868 0.605227 0.0133018 0.715425 -3.38228 0.437642 0.233527 -0.143013 
601 1 0.993799 0.508609 0.110105 0.388998 -3.29157 -0.179738 0.245677 -0.249582 
238 1 0.950048 0.558665 0.0100569 1.6267 -3.28794 -0.523298 -0.451561 0.100741 
241 1 0.00893726 0.595651 0.00910467 0.425038 -3.33017 0.12737 0.154165 -0.0599873 
248 1 0.131777 0.627916 0.0572614 5.82321 -3.34298 -0.0337041 0.244291 0.188097 
641 1 0.00379285 0.596277 0.106032 0.530119 -3.33362 0.545088 -0.19581 0.596327 
642 1 0.0713682 0.635382 0.105363 0.391833 -3.32258 -0.266737 0.168785 -0.453551 
245 1 0.121164 0.58333 0.0138022 6.85012 -3.25271 -0.328244 -0.184929 -0.495707 
242 1 0.0756806 0.632387 0.0118939 6.29848 -3.28194 -0.645972 0.365728 -0.301921 
247 1 0.171464 0.575325 0.0641603 8.60107 -3.19605 0.758205 0.572089 -0.487876 
252 1 0.205365 0.649168 0.0447852 6.68975 -3.29213 -0.451061 -0.223657 -0.236494 
287 1 0.151646 0.695499 0.0422907 6.61893 -3.22787 1.12574 -0.252513 0.189721 
289 1 0.205421 0.692413 0.990898 2.10794 -3.28189 0.551721 -0.164183 0.837993 
246 1 0.146839 0.650074 0.994243 6.30303 -3.30748 0.265662 -0.155542 0.1201 
251 1 0.249191 0.59263 0.047654 7.08055 -3.29375 0.0360673 0.33833 0.202552 
256 1 0.31601 0.636554 0.0390253 7.12054 -3.28146 0.0902868 0.245728 0.41972 
291 1 0.267436 0.686177 0.0377772 7.2997 -3.29818 -0.144993 -0.163195 0.163793 
693 1 0.290639 0.708654 0.0964677 5.28761 -3.34094 -0.251784 -0.171787 0.299396 
254 1 0.369606 0.635827 0.992173 7.89643 -3.29268 0.711386 -0.202111 0.0646378 
250 1 0.25745 0.63532 0.999991 2.72737 -3.25212 -0.542031 0.428744 -0.600679 
260 1 0.393035 0.653222 0.0543167 7.10564 -3.27285 -0.0534969 -0.656491 -0.0214462 
297 1 0.399004 0.696517 0.00619747 7.80006 -3.30218 0.067014 0.399589 -0.382125 
264 1 0.453429 0.691515 0.0540942 0.469579 -3.2772 0.1915 0.556624 0.0876615 
258 1 0.447341 0.650231 0.006756 7.58223 -3.28822 0.107589 -0.829441 -0.34304 
263 1 0.499619 0.641178 0.0549951 0.756 -3.35883 0.359026 0.104683 0.101785 
268 1 0.563667 0.6834 0.0522649 0.532457 -3.3628 -0.0408766 -0.0210077 0.269524 
265 1 0.565381 0.637576 0.00920979 1.13197 -3.29387 -0.538161 -0.32326 -0.494018 
262 1 0.510583 0.68784 0.00339779 0.531607 -3.35011 0.178171 0.211748 0.28173 
267 1 0.615051 0.632531 0.0561626 0.366909 -3.25162 0.337581 0.0250714 0.146991 
271 1 0.726124 0.619861 0.060314 0.438026 -3.32566 0.235093 0.174633 -0.460806 
272 1 0.677632 0.670919 0.0570301 0.458843 -3.32557 -0.174361 0.11152 0.353142 
270 1 0.732661 0.666562 0.00585464 0.516343 -3.35717 0.136259 -0.542138 0.057519 
311 1 0.733409 0.711557 0.0509758 1.30541 -3.26083 0.7585 -0.0234619 0.856744 
269 1 0.670004 0.628877 0.0119848 1.7536 -3.2958 0.312399 -0.725783 -0.462924 
266 1 0.624878 0.677058 0.00890934 0.503025 -3.26204 -0.28794 0.041168 -0.168197 
276 1 0.785275 0.661529 0.0570378 0.250994 -3.37627 -0.0339323 0.043089 0.166042 
315 1 0.84815 0.699799 0.0580567 0.252707 -3.32909 -0.265206 -0.308487 -0.113528 
273 1 0.781137 0.614088 0.0100336 0.131529 -3.34955 -0.0587456 -0.0214617 -0.00931693 
274 1 0.841108 0.652519 0.0101241 0.699356 -3.32758 0.481542 0.236282 0.108606 
244 1 0.0115032 0.641507 0.0606993 1.00812 -3.28768 0.545893 -0.376631 -0.42824 
279 1 0.951006 0.600566 0.0640831 0.750837 -3.29376 -0.607061 -0.0601334 -0.741331 
280 1 0.900961 0.652699 0.0645468 1.51569 -3.31109 -0.337631 -0.299715 -0.905609 
319 1 0.96726 0.690239 0.0549638 1.29158 -3.27299 -0.107137 -0.00254277 0.37251 
278 1 0.959643 0.64484 0.0132642 0.487844 -3.35623 -0.231383 -0.320246 -0.466446 
281 1 0.0266978 0.684466 0.0054966 6.08714 -3.36015 0.0667663 -0.311469 0.0369882 
283 1 0.0823229 0.679731 0.0537359 6.29178 -3.26895 -0.667304 -0.363665 0.174881 
288 1 0.110536 0.744031 0.0435978 6.3702 -3.26892 -0.862919 0.5319 0.0783756 
282 1 0.0509897 0.752649 0.994291 5.83112 -3.335 0.0470644 -0.0705979 0.128565 
725 1 0.115969 0.791343 0.0910268 7.77273 -3.33659 -0.235823 -0.241098 -0.167181 
285 1 0.104398 0.701764 0.993718 7.72412 -3.28868 -0.606837 0.0570177 -0.510475 
321 1 1.00028 0.8036 0.994055 6.45512 -3.27927 -0.220742 -0.133771 -0.175711 
292 1 0.219227 0.735713 0.0423524 6.35186 -3.30293 -0.170797 -0.120745 -0.156968 
729 1 0.188571 0.80887 0.0983909 7.05594 -3.33641 -0.147575 -0.00194537 -0.0806809 
327 1 0.172462 0.784457 0.0404648 6.30658 -3.24906 -0.121491 0.352866 0.148613 
331 1 0.244887 0.801928 0.0504596 7.23696 -3.36083 0.0924306 0.121396 0.296456 
686 1 0.164083 0.740374 0.0915396 6.65351 -3.30505 -0.0867766 0.175458 -0.147623 
295 1 0.344008 0.69926 0.0500659 6.48666 -3.26802 -0.272256 0.521333 0.297032 
690 1 0.238003 0.756859 0.100769 7.17209 -3.26728 0.213573 0.0351782 -0.700185 
296 1 0.294188 0.752373 0.0496712 5.50555 -3.31195 0.0877994 0.258932 0.587654 
293 1 0.325051 0.686306 0.990561 6.9746 -3.22619 -0.00697586 -0.231433 -0.0797599 
294 1 0.347281 0.747404 0.00178515 6.69086 -3.3138 0.105385 -0.365708 0.256172 
299 1 0.404826 0.743416 0.055449 1.30059 -3.35441 -0.210553 -0.121024 -0.572436 
300 1 0.354429 0.794728 0.0524368 0.513858 -3.31737 0.113921 -0.109126 -0.295984 
304 1 0.463966 0.780519 0.0491753 0.549869 -3.31517 -0.111159 0.523523 -0.0944014 
298 1 0.401899 0.787254 -0.00187003 2.24537 -3.29743 0.767715 0.241356 0.408937 
301 1 0.458004 0.739161 0.00178713 0.718158 -3.37259 0.220927 -0.149082 0.0198792 
303 1 0.511756 0.733508 0.0542722 0.911204 -3.29055 0.278313 -0.246951 -0.63417 
308 1 0.576912 0.769688 0.0519807 0.627638 -3.26717 0.148104 0.796479 0.564753 
302 1 0.524918 0.776891 0.00332058 0.689281 -3.29865 -0.622506 -0.148124 -0.245225 
305 1 0.574917 0.730009 0.00850956 1.58673 -3.21318 -0.724064 -1.08516 -0.80805 
307 1 0.628693 0.722408 0.0536462 0.465857 -3.35043 -0.0354071 -0.255329 0.322152 
309 1 0.684697 0.713758 0.0048136 0.251928 -3.24483 -0.342715 0.318852 -0.455139 
312 1 0.687867 0.759752 0.0504274 0.413034 -3.33066 -0.0594866 0.525953 0.0741531 
306 1 0.630724 0.766822 0.00239731 0.933536 -3.2947 0.920156 0.120588 -0.242928 
713 1 0.793889 0.706145 0.106076 0.388132 -3.38746 -0.242723 0.170952 0.00354166 
316 1 0.798031 0.749019 0.0563468 0.360973 -3.3196 -0.0506714 -0.162402 -0.00949407 
313 1 0.793299 0.704775 0.006785 0.346524 -3.3195 0.317816 -0.305069 0.0608704 
710 1 0.739293 0.757299 0.103103 0.331834 -3.37345 0.401555 0.0627181 0.0122501 
310 1 0.745898 0.750838 0.00036635 0.706103 -3.31001 0.0993559 0.538376 0.063465 
284 1 0.0302902 0.728759 0.0558303 6.66429 -3.30463 0.160824 -0.283067 -0.0339952 
320 1 0.908992 0.732014 0.0559662 2.81425 -3.26694 0.428512 0.834197 -0.111709 
359 1 0.979732 0.774422 0.0552852 6.0586 -3.29725 -0.181885 0.349043 -0.0244652 
357 1 0.928502 0.777984 0.00599411 1.5473 -3.32597 -0.462879 0.353488 0.165095 
318 1 0.977873 0.730935 0.00673109 5.06757 -3.25133 -0.165496 0.0433365 -0.00984776 
323 1 0.0538283 0.795367 0.0418926 5.70285 -3.30785 0.391427 -0.0719865 -0.0940289 
328 1 0.125238 0.835072 0.0388209 6.37802 -3.25933 -0.912505 -0.164707 0.234225 
363 1 0.072444 0.88239 0.0441463 2.14916 -3.30981 -0.226332 -0.182374 -0.612506 
765 1 0.0828389 0.913957 0.0953512 4.53126 -3.27097 -0.263001 0.0719981 0.2382 
365 1 0.119973 0.883627 0.986641 7.45991 -3.33977 0.00282021 0.128769 0.179806 
722 1 0.0635145 0.836897 0.0896812 8.43974 -3.30446 -0.0742103 0.409973 -0.0820368 
332 1 0.192321 0.856698 0.0487923 6.81225 -3.22671 -0.0525077 -0.298202 0.386346 
371 1 0.204212 0.947481 0.0492273 1.07013 -3.30013 0.0580988 -0.168714 -0.419677 
726 1 0.135785 0.862464 0.0962788 7.31068 -3.29252 -0.122568 -0.178726 -0.312233 
335 1 0.30363 0.843998 0.0512088 0.45672 -3.32612 0.0705694 0.115345 -0.647381 
336 1 0.247445 0.89569 0.0474626 1.48855 -3.27881 0.743842 0.147327 -0.200175 
334 1 0.311951 0.88952 -0.000225525 0.551787 -3.35389 -0.326998 -0.355701 0.0319027 
375 1 0.312923 0.933397 0.0446269 0.422893 -3.34028 0.452763 -0.122554 0.271983 
773 1 0.26081 0.935711 0.0943566 1.18105 -3.30618 -0.0157519 0.535001 0.00422623 
339 1 0.416596 0.831456 0.04708 0.743136 -3.35684 -0.085284 -0.0551448 0.194647 
340 1 0.365525 0.884364 0.0470439 0.332108 -3.32337 -0.0506912 -0.0449566 -0.155508 
344 1 0.476216 0.869409 0.0477639 0.386296 -3.31678 0.0728427 0.133962 -0.207121 
338 1 0.420986 0.875123 -0.00153121 0.515132 -3.27213 0.166785 0.316746 0.319302 
337 1 0.360855 0.839119 0.000133354 0.511348 -3.32542 -0.163926 -0.0257228 -0.0532516 
343 1 0.52353 0.818543 0.0498299 0.864953 -3.30846 0.310717 0.406035 -0.285639 
348 1 0.58815 0.859273 0.0464961 0.603728 -3.32419 -0.208894 0.0476616 0.195215 
742 1 0.530979 0.865214 0.0914569 2.13218 -3.32449 0.410196 0.241292 0.799936 
342 1 0.53333 0.865322 0.997611 0.207938 -3.37643 -0.217035 -0.250277 0.0614243 
345 1 0.583132 0.814771 -0.00203075 0.282324 -3.34005 -0.042858 0.378773 0.0579723 
347 1 0.637906 0.811356 0.0456942 1.11292 -3.30876 0.183809 -0.24889 0.51598 
352 1 0.696535 0.849138 0.0491026 0.643015 -3.33485 0.255473 0.0952486 0.0771592 
346 1 0.643829 0.85432 -0.00040701 0.4741 -3.29324 0.32861 -0.032513 -0.0904066 
349 1 0.700009 0.802578 -0.00201956 1.05559 -3.37076 -0.230056 -0.103192 0.427179 
746 1 0.643051 0.861378 0.0982894 1.13455 -3.3121 -0.320711 -0.427663 -0.0321696 
355 1 0.864255 0.783169 0.0555249 1.21192 -3.31463 -0.100406 0.560356 -0.282968 
353 1 0.805087 0.794071 0.00678955 1.76924 -3.31413 0.246186 -0.187712 -0.356358 
351 1 0.749994 0.795975 0.0511233 1.04176 -3.31428 -0.356008 0.412686 0.118396 
356 1 0.812261 0.837414 0.0549908 0.635428 -3.31116 0.315076 -0.00996466 -0.36745 
395 1 0.877824 0.876294 0.0515188 2.28793 -3.32229 0.350457 -0.421868 0.129981 
354 1 0.874405 0.827217 0.00542004 0.564357 -3.37094 -0.179545 -0.153786 0.0989684 
754 1 0.870355 0.834272 0.100643 0.769051 -3.25403 -0.308588 -0.341026 -0.232833 
757 1 0.916175 0.784746 0.102593 0.636026 -3.23876 -0.0244866 -0.547606 0.125742 
324 1 0.00166428 0.845114 0.0415274 6.33878 -3.24706 0.587164 0.1536 0.18043 
360 1 0.929367 0.822878 0.0567973 5.90641 -3.26094 -0.373507 0.407203 -0.531811 
3 1 0.0413506 0.00738737 0.0455572 6.52756 -3.29118 -0.142821 -0.393818 0.163125 
368 1 0.0976355 0.958589 0.0433759 6.20973 -3.20821 -0.885563 -0.361212 0.584129 
762 1 0.0279381 0.960308 0.0955996 9.54917 -3.24145 0.303361 0.50594 0.661848 