ITEM: TIMESTEP
12500
ITEM: NUMBER OF ATOMS
4000
ITEM: BOX BOUNDS pp pp pp
2.4655594662920266e+00 3.8034440533707404e+01
-2.4649019639039818e+00 4.2964901963903110e+01
-7.1682782970859982e-01 4.1216827829708805e+01
ITEM: ATOMS id type xs ys zs c_csym c_peratom fx fy fz 
8 1 0.0632132 0.0873063 0.0545845 0.457411 -3.35517 -0.0407779 0.378467 0.0936168 
405 1 0.0459995 0.0459819 0.101271 6.68017 -3.30579 0.835692 -0.0875854 0.341694 
7 1 0.108391 0.0360291 0.0573725 0.816267 -3.30435 0.430563 0.436123 -0.241599 
406 1 0.120004 0.0842494 0.10402 0.497101 -3.27465 -0.449743 0.147217 -0.0133951 
3 1 0.0476 0.000425738 0.0517231 7.06767 -3.26332 -0.0028394 -0.411429 0.238144 
12 1 0.16996 0.0778451 0.0577676 1.58697 -3.30812 0.554478 -0.248 -0.640198 
11 1 0.225827 0.0252673 0.0576866 0.188761 -3.32536 -0.0161561 0.174319 -0.146149 
409 1 0.16671 0.0331302 0.102668 0.736961 -3.31623 0.233637 -0.0847705 0.104071 
410 1 0.234366 0.067013 0.107078 0.978034 -3.37225 0.27911 0.0717478 -0.0811216 
16 1 0.286324 0.0643452 0.0566438 0.565524 -3.30703 0.201994 -0.138217 0.296229 
15 1 0.333763 0.0145239 0.0554294 0.847982 -3.27053 1.03516 0.0462629 0.684561 
413 1 0.286208 0.0149673 0.105871 1.69476 -3.30302 -0.604227 0.215397 0.0148878 
414 1 0.338784 0.0591477 0.106312 1.03313 -3.35252 0.438401 0.0378041 -0.234097 
20 1 0.399122 0.0551404 0.0567988 0.463186 -3.36265 -0.289071 -0.0484174 -0.249487 
19 1 0.444326 0.00483022 0.0531764 0.641108 -3.26809 0.578932 0.65773 -0.0607976 
59 1 0.459146 0.096492 0.0520014 0.506086 -3.34561 -0.154786 -0.316005 0.277867 
418 1 0.453159 0.052002 0.104814 0.801332 -3.31904 0.400734 -0.260965 -0.122889 
417 1 0.394743 0.0120603 0.104711 0.79867 -3.35415 -0.317609 -0.338509 0.135558 
421 1 0.502892 0.999699 0.101515 0.781894 -3.31314 0.170503 0.0992345 -0.124148 
24 1 0.507239 0.0426502 0.0500143 0.336552 -3.36176 -0.154689 -0.0495404 0.340402 
461 1 0.515721 0.08714 0.100107 0.345092 -3.36441 -0.124747 -0.0141897 0.173557 
28 1 0.620597 0.0326967 0.0491379 0.382603 -3.31288 0.0824674 -0.273824 0.355948 
23 1 0.56137 0.992953 0.0497666 0.335424 -3.29335 0.131384 0.113388 0.162634 
422 1 0.564138 0.0357798 0.0982678 0.681388 -3.35073 0.327323 0.168814 0.361625 
63 1 0.569777 0.0797478 0.049158 0.576682 -3.31091 -0.0157154 0.285646 0.423512 
465 1 0.626001 0.0759899 0.100539 0.203387 -3.35152 -0.0752082 -0.135944 -0.244423 
32 1 0.724149 0.0212405 0.051534 1.73157 -3.2885 1.02646 0.0598556 -0.0586928 
67 1 0.68093 0.0706866 0.0499739 0.499098 -3.30676 0.096208 0.541893 0.114723 
469 1 0.736369 0.0659649 0.0998724 0.674868 -3.31573 0.498229 0.232771 -0.29769 
426 1 0.677646 0.0283827 0.104273 1.16647 -3.29034 -0.343872 -0.274685 -0.114914 
36 1 0.790249 0.0601796 0.0445687 0.873449 -3.35532 -0.0512802 0.244658 0.307822 
35 1 0.843744 0.0114502 0.0462496 0.849819 -3.3303 -0.030187 0.119945 -0.191662 
434 1 0.839118 0.0572143 0.0985314 1.65346 -3.29531 0.434729 0.181298 0.0066666 
75 1 0.855898 0.0976577 0.0464208 2.20416 -3.28407 -0.272522 0.324096 -0.0331232 
473 1 0.794693 0.110228 0.0951573 1.4377 -3.32739 0.151377 -0.413798 0.583502 
4 1 0.99801 0.0491222 0.0501596 6.24128 -3.15795 0.207666 0.581406 0.377952 
401 1 0.997435 0.997653 0.0992924 1.91112 -3.21289 -0.302344 0.36484 0.558586 
40 1 0.905559 0.0543455 0.0524195 5.92852 -3.2999 -0.0335515 -0.476466 -0.422777 
402 1 0.000680267 0.0943877 0.103546 2.2783 -3.21895 0.988489 0.212767 -0.284293 
43 1 0.0143842 0.140412 0.0593575 1.09106 -3.33636 0.102261 0.0317083 -0.45798 
48 1 0.0735624 0.180766 0.0550254 1.07946 -3.3173 0.181832 -0.416082 0.180822 
45 1 0.071469 0.133752 0.00653847 0.408112 -3.37992 -0.094839 -0.0732504 0.155701 
42 1 0.0225076 0.18596 0.0063733 0.447738 -3.29572 -0.400886 -0.00709026 0.32546 
47 1 0.125315 0.128494 0.0570862 0.75044 -3.30563 0.0696523 -0.155433 -0.517545 
46 1 0.133771 0.173795 0.00933915 0.547542 -3.31435 -0.122565 -0.359953 -0.372786 
445 1 0.0705005 0.132985 0.103501 0.570357 -3.32122 -0.175803 -0.171137 -0.0293291 
442 1 0.0191372 0.185567 0.105605 0.547306 -3.33149 -0.393653 -0.118453 -0.325202 
52 1 0.191878 0.162968 0.052468 1.37103 -3.29762 -0.242472 0.01012 0.746885 
51 1 0.241697 0.113407 0.0580499 0.806288 -3.30813 -0.10787 0.368164 -0.122781 
450 1 0.245991 0.159889 0.110109 1.65168 -3.31958 -0.0834298 0.415214 -0.357076 
449 1 0.188843 0.118222 0.103699 1.88286 -3.32349 -0.5713 0.465824 0.203364 
55 1 0.346711 0.104188 0.058676 0.589919 -3.32014 0.270639 -0.0728824 0.0136318 
56 1 0.302054 0.15481 0.0576767 0.369818 -3.36329 -0.0874855 0.014083 0.0863654 
95 1 0.361071 0.194692 0.0570737 0.601202 -3.28069 -0.124151 0.089643 -0.427568 
453 1 0.294842 0.113791 0.108205 1.40859 -3.28143 -0.0720416 -0.705299 -0.309506 
60 1 0.406475 0.145314 0.0527237 0.730217 -3.34653 0.40207 -0.340164 0.126547 
97 1 0.411962 0.189084 0.0055368 0.743985 -3.32623 0.465629 -0.192136 -0.340995 
99 1 0.470823 0.185333 0.0504598 0.376984 -3.32259 0.00626888 -0.229412 0.077849 
457 1 0.40193 0.0983948 0.103214 0.683714 -3.28356 0.281729 0.189535 -0.0328176 
458 1 0.46601 0.137676 0.103326 0.56072 -3.3816 -0.0935305 0.146243 -0.216835 
497 1 0.418893 0.189317 0.0984922 1.29637 -3.31364 0.175387 0.259538 0.481282 
64 1 0.518275 0.135188 0.0508589 0.68398 -3.31264 0.219923 -0.277383 0.183059 
462 1 0.574665 0.125593 0.0983777 0.362413 -3.33757 0.180421 0.0812464 -0.0184266 
501 1 0.529108 0.17731 0.100717 0.249103 -3.33005 -0.367241 0.0842475 -0.0746536 
103 1 0.580789 0.17155 0.0506771 0.313325 -3.37344 0.28753 0.208654 -0.051123 
68 1 0.626969 0.122467 0.048504 0.734875 -3.3268 0.438399 -0.0651576 0.420873 
505 1 0.639763 0.163954 0.100507 0.76555 -3.31287 -0.385419 0.0267092 -0.342518 
72 1 0.691239 0.161211 0.0474991 0.487656 -3.266 -0.421817 -0.0681756 -0.136686 
466 1 0.687784 0.115623 0.0956224 0.839858 -3.3212 -0.2281 -0.32281 0.166182 
71 1 0.742262 0.113923 0.045698 0.845371 -3.31143 -0.307144 -0.51356 -0.143516 
470 1 0.741791 0.157464 0.096203 1.38551 -3.26615 0.42661 0.0633264 0.347479 
76 1 0.805397 0.14462 0.0440844 4.71806 -3.25777 0.319685 1.0333 0.142056 
474 1 0.854518 0.152038 0.100228 1.84351 -3.31107 -0.419137 0.0396977 0.0373426 
79 1 0.953298 0.102873 0.05397 5.98271 -3.27712 -0.266567 -0.299539 -0.108149 
477 1 0.895637 0.0995052 0.104408 2.49116 -3.3221 0.164674 0.21691 -0.208662 
44 1 0.964688 0.191958 0.0556147 0.413511 -3.34712 -0.04919 -0.0116017 0.00577903 
80 1 0.903571 0.149076 0.0466857 2.84291 -3.25677 -0.166318 -0.144156 0.710756 
478 1 0.907411 0.197507 0.106664 1.61365 -3.29703 0.143469 -0.191512 -0.389382 
441 1 0.95199 0.145344 0.100687 1.68493 -3.35577 0.0356138 0.192566 0.457729 
41 1 0.00541878 0.0952938 0.00589096 6.77064 -3.3391 0.162775 0.0367791 0.0878821 
78 1 0.963721 0.148894 0.00548135 6.67964 -3.24727 -0.476989 -0.381169 0.327438 
83 1 0.0282151 0.232189 0.0541318 0.664408 -3.28606 -0.461843 -0.520178 0.360903 
88 1 0.0863062 0.26844 0.0543152 0.664538 -3.30186 0.713939 0.0326172 0.104744 
85 1 0.0842685 0.222759 0.00745883 0.262874 -3.30825 0.0631704 0.255742 -0.0173283 
82 1 0.0331426 0.275064 0.00948728 0.636215 -3.2334 0.031667 -0.150219 -0.725667 
87 1 0.140884 0.211129 0.0577609 1.7196 -3.28074 -0.192284 0.546868 -0.362541 
91 1 0.248419 0.200954 0.0578965 1.39664 -3.31253 0.368346 0.57592 -0.0689424 
92 1 0.19828 0.254521 0.0572025 0.803911 -3.32321 0.296633 0.134725 -0.547218 
86 1 0.147768 0.259725 0.00676435 0.40587 -3.32136 -0.142654 -0.351934 0.0338363 
90 1 0.254729 0.249667 0.00617264 0.460753 -3.32081 -0.0935989 -0.0234181 -0.0847976 
89 1 0.199546 0.207977 0.00421165 1.06142 -3.32929 -0.306715 0.446361 0.135559 
493 1 0.310371 0.199761 0.103807 0.680619 -3.30307 -0.838942 0.0655704 0.236901 
96 1 0.305661 0.246606 0.0544382 1.14291 -3.32192 0.549004 -0.143129 -0.160483 
135 1 0.373662 0.283294 0.052199 0.666126 -3.32626 -0.420298 -0.247753 -0.14628 
133 1 0.31445 0.289272 0.00070799 0.557348 -3.32419 0.0375241 -0.105741 0.328784 
93 1 0.304987 0.200099 0.00794585 0.517213 -3.31991 -0.0874853 -0.0461168 -0.256803 
94 1 0.363789 0.236893 0.00751002 0.974462 -3.31721 -0.142779 0.364842 -0.520067 
100 1 0.423296 0.234655 0.049888 0.578008 -3.29382 -0.170179 -0.299162 0.334706 
139 1 0.482676 0.270008 0.0469161 0.604217 -3.27611 0.0193889 0.51102 0.3729 
537 1 0.429699 0.277669 0.0969693 0.527764 -3.38747 0.0334465 0.263483 0.262713 
498 1 0.480229 0.228217 0.104039 1.62577 -3.3512 -0.0411103 0.0476134 -0.509072 
98 1 0.480191 0.230071 -3.27573e-05 1.69152 -3.26295 -0.525057 -0.969826 -0.0351397 
137 1 0.42457 0.274132 0.998057 0.873889 -3.29041 0.227582 0.122814 0.0845045 
104 1 0.530287 0.222681 0.0500756 0.711308 -3.30799 0.554715 -0.0653247 0.103432 
108 1 0.596935 0.258912 0.0511503 1.25185 -3.2804 -0.455639 -0.0501588 -0.458907 
502 1 0.591838 0.21352 0.0991934 0.718267 -3.31617 -0.167747 0.251479 -0.167671 
541 1 0.542306 0.268023 0.0948076 1.06797 -3.30655 -0.258024 -0.19906 0.669481 
107 1 0.647907 0.212494 0.0492034 1.25902 -3.27881 -0.478991 -0.178654 -0.263008 
509 1 0.69535 0.207985 0.0972889 1.29447 -3.2443 0.836457 -0.0336802 0.14444 
112 1 0.712838 0.253468 0.0407471 7.70428 -3.29475 -0.621223 -0.492584 0.335656 
147 1 0.651631 0.299899 0.0421684 6.74277 -3.29524 1.03797 -0.00371589 0.378507 
506 1 0.649953 0.258213 0.0965673 5.83199 -3.22634 0.0491861 -0.0463063 -0.310247 
510 1 0.746984 0.25566 0.10471 7.26322 -3.32522 -0.0720077 -0.104274 -0.400514 
513 1 0.796096 0.202419 0.0985774 1.42251 -3.28573 -0.18181 0.0103209 0.518193 
115 1 0.854662 0.20024 0.0567885 3.1707 -3.30749 -0.16156 -0.215654 -0.341374 
111 1 0.749454 0.198106 0.0465233 2.67675 -3.26036 0.535727 0.427773 -0.178294 
116 1 0.799131 0.249606 0.0494075 6.00959 -3.30925 0.0704504 0.0282139 0.653049 
120 1 0.864443 0.293185 0.055249 1.64971 -3.28162 -0.587472 -0.163838 -0.452059 
114 1 0.854148 0.240762 0.00398976 6.40527 -3.26052 0.25986 0.574203 0.450713 
153 1 0.80453 0.297712 0.0037857 6.74287 -3.31895 0.0474155 -0.0333294 0.283514 
81 1 0.972745 0.237073 0.00955678 0.942874 -3.33127 -0.688026 -0.273199 -0.125107 
481 1 0.966663 0.23706 0.100128 0.956606 -3.35645 0.162536 -0.263904 0.143148 
84 1 0.973426 0.282919 0.0541832 0.371457 -3.28633 -0.111876 -0.291932 0.0250459 
119 1 0.909289 0.244047 0.0538394 0.956054 -3.3422 0.280435 -0.429006 -0.0722496 
118 1 0.915319 0.288606 0.00621483 1.15016 -3.33355 0.143072 -0.425865 -0.158918 
123 1 0.0365863 0.317443 0.0527924 0.194256 -3.32289 0.168922 0.410134 0.199575 
125 1 0.0972201 0.310285 0.00362796 0.424819 -3.31092 -0.432077 0.32399 0.0527766 
128 1 0.101632 0.354856 0.0541612 1.52863 -3.27015 -0.611094 0.0814138 -0.899458 
122 1 0.0417795 0.359021 -0.000349758 0.610933 -3.36727 -0.00524449 0.235485 0.276463 
129 1 0.2058 0.298551 0.00608924 1.27267 -3.26773 0.719242 0.182877 -0.302287 
127 1 0.151746 0.308431 0.0482134 1.46401 -3.25629 -0.222678 -0.451942 0.862481 
132 1 0.206167 0.350863 0.0482241 1.40163 -3.30924 0.698261 -0.292426 0.144994 
529 1 0.205092 0.30365 0.100286 0.284751 -3.37686 -0.253808 -0.0981959 -0.191516 
169 1 0.214629 0.389379 0.995668 0.706118 -3.38653 0.321908 0.173587 0.197217 
126 1 0.156618 0.349252 0.999238 0.632295 -3.22306 -0.0934584 0.598299 0.0565037 
130 1 0.266192 0.340977 -0.00069815 0.625819 -3.33735 -0.358585 -0.266768 -0.0979139 
131 1 0.262466 0.300191 0.0532341 1.41431 -3.33797 -0.374571 -0.264126 -0.354649 
136 1 0.32608 0.335889 0.04532 0.751504 -3.31868 -0.317367 -0.155888 0.400928 
175 1 0.385913 0.374163 0.0407739 0.829118 -3.29635 0.160409 -0.113323 0.309942 
134 1 0.381714 0.322317 0.00152325 2.60929 -3.27664 -0.390588 0.624967 -0.396547 
171 1 0.27431 0.384989 0.0440704 0.385932 -3.33236 -0.174012 0.0940336 0.311913 
173 1 0.328177 0.376858 0.996579 0.632616 -3.28707 0.0321271 -0.267559 -0.766701 
140 1 0.434824 0.323936 0.0472574 0.694526 -3.29923 0.299826 -0.508019 -0.332425 
144 1 0.500916 0.360353 0.0410473 1.04091 -3.26833 -0.468579 -0.16309 -0.169114 
538 1 0.489413 0.321248 0.0958762 1.20457 -3.28627 -0.231559 -0.525035 -0.0918207 
143 1 0.542009 0.306359 0.0469521 1.55966 -3.3139 0.496951 0.431102 -0.373668 
545 1 0.606627 0.309166 0.0981513 8.15043 -3.30758 -0.496178 -0.258633 -0.264802 
148 1 0.603898 0.348891 0.040844 5.8015 -3.31324 -0.0315196 0.0469291 0.0698119 
542 1 0.551489 0.354892 0.0903039 6.43387 -3.255 0.302646 0.106512 0.150951 
183 1 0.558749 0.40188 0.0396035 6.74919 -3.3202 0.203578 -0.0057661 -0.113133 
581 1 0.504065 0.402744 0.0869667 9.05006 -3.29945 -0.267835 0.516621 0.349693 
549 1 0.696521 0.307237 0.101847 6.08676 -3.24081 -0.758083 -0.17518 -0.155546 
151 1 0.745445 0.303547 0.055254 8.59204 -3.25128 0.599326 0.0981933 -0.438385 
152 1 0.694588 0.354819 0.0470807 5.7533 -3.31907 -0.0139699 -0.277304 -0.119665 
189 1 0.701303 0.40018 0.996594 6.47376 -3.24576 -0.266591 -0.418907 0.578424 
150 1 0.746079 0.346341 -3.4127e-05 9.10271 -3.24078 0.580981 0.417609 0.413465 
155 1 0.81053 0.340784 0.0528602 0.874415 -3.33131 -0.334148 0.10139 -0.310519 
156 1 0.758455 0.391166 0.0488989 0.370185 -3.3547 -0.0594438 -0.0926309 -0.161085 
154 1 0.81364 0.385028 0.997298 0.740073 -3.34022 -0.0386843 -0.0271187 0.336273 
160 1 0.868519 0.381036 0.0470565 0.823177 -3.35045 -0.188548 -0.00229146 0.623427 
157 1 0.861143 0.336894 0.999809 1.74058 -3.30346 0.52434 -0.230768 0.103591 
159 1 0.920806 0.333802 0.0512529 0.592431 -3.29353 -0.313273 -0.281423 0.28006 
121 1 0.98031 0.322753 0.00430665 0.260128 -3.3166 0.054797 0.271703 0.054358 
124 1 0.980343 0.367761 0.05105 0.679995 -3.27165 0.546266 -0.0342104 -0.315542 
158 1 0.925878 0.374167 0.00219902 0.43965 -3.3012 0.227579 0.0227188 0.0532623 
163 1 0.0487547 0.402631 0.0462471 2.00315 -3.3162 -0.0808613 0.284487 0.187562 
165 1 0.103874 0.395548 0.000515156 1.0568 -3.29574 -0.23009 0.32667 -0.291087 
168 1 0.103493 0.446167 0.045532 1.78644 -3.28725 0.548975 -0.401779 0.340428 
162 1 0.0508216 0.451282 0.998346 0.499772 -3.33308 -0.0586756 -0.378734 -0.161453 
205 1 0.114988 0.487748 0.00105465 1.57235 -3.31067 -0.103901 0.110459 -0.624646 
167 1 0.154658 0.397689 0.0477924 1.75781 -3.26767 0.590493 0.260407 0.0204346 
172 1 0.227614 0.435683 0.0464158 1.04742 -3.28495 -0.296767 -0.307709 -0.272679 
166 1 0.163051 0.435943 0.997019 0.75247 -3.31186 0.225158 0.266655 0.182456 
207 1 0.172943 0.480085 0.0411918 2.41351 -3.28492 -0.178859 0.493379 0.474446 
209 1 0.231936 0.478166 0.00123399 2.51433 -3.17148 -0.580669 -0.762729 -1.31098 
176 1 0.337004 0.420335 0.0375464 2.43926 -3.18618 -0.126179 0.719828 1.42185 
170 1 0.283085 0.429133 0.99557 0.976313 -3.31326 -0.634453 -0.00880586 -0.130003 
211 1 0.281957 0.475772 0.0465704 1.63031 -3.2541 1.02803 -0.245986 0.256366 
179 1 0.446713 0.412842 0.0384487 0.562177 -3.3203 -0.206112 -0.342279 0.19308 
180 1 0.397794 0.460616 0.0372707 0.93402 -3.31805 0.102659 0.0692805 0.484494 
578 1 0.453527 0.45659 0.0939534 5.85755 -3.31458 -0.0257558 -0.412995 -0.410616 
219 1 0.458978 0.501525 0.0386329 6.62209 -3.32487 -0.14815 -0.0627406 -0.124204 
617 1 0.40423 0.502773 0.090097 7.58609 -3.31633 -0.0576251 0.186184 0.133196 
585 1 0.591304 0.409207 0.100804 7.87189 -3.30261 -0.127385 -0.339579 -0.340199 
184 1 0.504247 0.450286 0.0382488 6.73587 -3.28352 0.584669 0.137908 0.11953 
188 1 0.594194 0.45622 0.0444047 7.14747 -3.27925 -0.666697 -0.435426 0.288774 
582 1 0.538333 0.461363 0.0959412 7.12689 -3.30672 -0.0603958 -0.567845 0.128471 
225 1 0.590957 0.499721 0.998814 8.19817 -3.32937 0.257615 -0.0839033 0.526777 
187 1 0.6424 0.402665 0.0418494 6.61379 -3.30891 0.0493127 0.0480498 0.693923 
191 1 0.707965 0.441862 0.0429366 0.873732 -3.30475 -0.166632 -0.0932173 0.570846 
192 1 0.653157 0.490205 0.0439044 1.0571 -3.28415 0.53147 0.354832 0.0622145 
190 1 0.712842 0.484255 0.994508 1.24055 -3.30149 -0.00258732 0.186001 0.654079 
186 1 0.64897 0.446183 0.996253 6.9418 -3.29124 -0.199913 0.17121 -0.192694 
195 1 0.816966 0.431744 0.0519972 0.736128 -3.30069 0.186763 -0.403108 -0.474787 
193 1 0.766863 0.436485 0.000613921 1.02924 -3.32339 0.025427 -0.0572929 -0.315929 
196 1 0.766654 0.480358 0.0491381 0.43094 -3.36324 -0.135357 0.308668 -0.124523 
194 1 0.827617 0.47362 0.999178 0.546109 -3.29065 -0.520823 -0.373631 0.332277 
197 1 0.876073 0.42265 3.33401e-07 0.277042 -3.29068 -0.20469 -0.137892 0.104108 
164 1 0.992548 0.459467 0.0541997 1.60619 -3.28683 -0.00673506 -0.278073 -0.408607 
161 1 0.986369 0.413538 0.00544171 1.28119 -3.35594 0.508951 -0.0756236 -0.0227013 
199 1 0.92889 0.420859 0.0514506 0.707458 -3.26537 0.169354 -0.396838 0.178843 
200 1 0.880267 0.467881 0.0496593 0.351629 -3.30142 -0.184256 0.485509 0.489433 
198 1 0.933641 0.462096 0.00599985 1.5496 -3.30925 0.74781 0.472901 -0.715063 
203 1 0.0552232 0.493056 0.0443213 1.09294 -3.252 0.209331 0.596845 0.440272 
208 1 0.121227 0.5335 0.0469345 0.821394 -3.32674 0.243129 0.183625 -0.602043 
243 1 0.076101 0.582801 0.0446547 0.648578 -3.27226 -0.413955 -0.0623353 -0.233264 
202 1 0.0594594 0.537283 0.992617 2.18862 -3.23224 0.785731 -0.471625 0.790612 
204 1 0.00898274 0.543546 0.0460811 0.861455 -3.25913 0.269474 0.41504 0.278746 
241 1 0.0169058 0.584707 0.999904 1.36745 -3.29913 -0.23057 0.850449 -0.26925 
245 1 0.13072 0.574246 0.994594 0.838088 -3.37737 -0.0619562 -0.123589 0.159171 
212 1 0.232264 0.522096 0.0417847 1.13266 -3.20774 0.475871 0.510922 0.666776 
206 1 0.184117 0.525251 0.991778 2.76237 -3.17316 -1.31768 0.100397 1.0171 
249 1 0.188173 0.617822 0.992579 0.58242 -3.25797 -0.10987 -0.0728257 0.154655 
247 1 0.189107 0.570021 0.0444995 1.65762 -3.28403 -0.908035 0.362107 -0.0209187 
251 1 0.241934 0.610877 0.0449037 1.38503 -3.31983 0.488225 0.577463 -0.109737 
215 1 0.345341 0.509033 0.0423772 0.836427 -3.33486 0.226674 0.480109 0.191631 
216 1 0.301566 0.564833 0.0447063 2.19178 -3.27346 -0.702937 -0.456743 -0.318425 
255 1 0.36105 0.600379 0.0382735 6.62453 -3.27347 0.218334 -0.506181 0.330561 
614 1 0.35656 0.554131 0.0919513 7.18702 -3.31504 0.0709368 0.0900452 0.0129844 
653 1 0.306282 0.606472 0.0918417 6.42733 -3.32524 0.06232 0.144345 0.0134586 
220 1 0.414035 0.551699 0.0459589 9.33774 -3.27778 -0.539193 -0.233686 -1.00639 
618 1 0.439162 0.557997 0.104766 6.96641 -3.24063 0.231038 0.378684 -0.109401 
259 1 0.442629 0.607992 0.0528782 7.89337 -3.27209 0.113079 -0.226287 0.0589248 
224 1 0.490606 0.558476 0.0508446 7.00881 -3.26547 -0.000417696 -0.241336 0.375512 
261 1 0.493772 0.600272 0.00487769 6.4543 -3.27886 0.0889324 0.113373 -0.7615 
223 1 0.537753 0.5094 0.0510789 7.24428 -3.31312 0.39908 -0.337773 -0.394643 
228 1 0.555203 0.592455 0.0489659 0.547592 -3.33842 0.411961 0.384652 0.202572 
227 1 0.606036 0.545104 0.0513564 0.883358 -3.32019 -0.238517 -0.331929 -0.47003 
226 1 0.61269 0.588584 0.999698 0.613418 -3.27496 -0.124072 -0.709432 0.27895 
222 1 0.542841 0.55306 0.999664 7.29554 -3.31903 0.333751 -0.511956 0.205494 
231 1 0.714832 0.531825 0.0511296 1.12366 -3.29939 0.218806 -0.627253 -0.293969 
232 1 0.668882 0.579173 0.0496358 0.208951 -3.27658 0.039286 0.278068 0.208704 
229 1 0.661396 0.536916 0.00315626 0.708289 -3.33648 -0.308736 -0.345319 -0.385904 
230 1 0.72289 0.571455 0.001576 0.429075 -3.31348 0.256641 0.249273 -0.0405975 
235 1 0.827451 0.518359 0.0472784 0.475112 -3.33568 0.253398 -0.143721 0.135324 
236 1 0.780996 0.566982 0.0485328 0.419339 -3.27931 -0.545231 0.169753 0.0673043 
233 1 0.771717 0.523125 0.99465 1.78607 -3.30026 0.387743 -0.430431 1.0096 
234 1 0.834849 0.564265 0.00447323 1.22045 -3.28363 0.500266 -0.478563 -0.657382 
239 1 0.948566 0.51073 0.0539494 2.15866 -3.2723 -1.2292 -0.499353 -0.64243 
237 1 0.887017 0.511927 0.00260158 0.535376 -3.36076 0.479243 0.377993 0.169438 
240 1 0.893931 0.560099 0.0507692 0.457699 -3.28923 -0.0710197 -0.660575 -0.303366 
238 1 0.950131 0.552312 1.0002 0.461642 -3.34489 0.0118109 -0.380941 0.0353685 
201 1 0.999479 0.500629 0.000576979 0.33416 -3.31278 -0.470122 -0.209883 -0.329595 
242 1 0.0859998 0.624512 0.998846 1.95907 -3.28573 -0.605411 0.344848 -0.736102 
244 1 0.0253014 0.632903 0.0436542 0.448045 -3.32905 -0.254256 0.374297 -0.221241 
281 1 0.0328111 0.679907 0.999806 1.5439 -3.30893 -0.655801 -0.652078 -0.662368 
283 1 0.089519 0.673028 0.0417683 0.938934 -3.28353 -0.0194189 0.164251 0.243944 
248 1 0.140969 0.624618 0.0411078 1.6668 -3.23727 0.0115061 -0.33814 0.520241 
252 1 0.193668 0.665639 0.0467088 1.24887 -3.32852 0.530166 0.0666273 -0.132796 
287 1 0.145703 0.716635 0.0448051 1.69658 -3.28453 0.544661 -0.140505 -0.357592 
689 1 0.205515 0.705857 0.096691 6.2642 -3.28351 -0.431738 -0.475779 0.360492 
256 1 0.30967 0.646891 0.0357944 8.27927 -3.3065 -0.147141 -0.201069 0.650707 
291 1 0.263784 0.697424 0.0455375 7.3102 -3.30736 0.129494 -0.349766 -0.162867 
295 1 0.345357 0.702208 0.0582475 7.9552 -3.3536 0.107532 0.165644 -0.40151 
654 1 0.341677 0.660726 0.104389 6.87957 -3.2284 0.167181 -0.624097 0.0516387 
650 1 0.256592 0.656343 0.0988238 5.88116 -3.26855 -0.401969 -0.400019 -0.595968 
260 1 0.393145 0.651715 0.0565021 7.54789 -3.28771 0.0597434 0.779851 -0.291704 
297 1 0.393826 0.697035 0.00269201 6.80611 -3.24644 0.382156 -0.253943 0.473646 
264 1 0.463201 0.692085 0.0535865 1.08733 -3.32984 -0.46765 -0.396767 0.427068 
258 1 0.443875 0.65167 0.000845799 6.39856 -3.26324 0.279125 -0.812026 0.703362 
263 1 0.510925 0.642747 0.0472034 0.901204 -3.32584 -0.0141143 0.233801 0.440165 
268 1 0.576041 0.677536 0.0479918 0.614769 -3.32468 -0.622834 -0.0601047 -0.0336242 
265 1 0.569877 0.636366 0.996565 1.48104 -3.31238 -0.76381 0.110505 0.367168 
262 1 0.512847 0.683568 0.995748 1.41081 -3.22355 0.485432 -0.21508 0.845836 
267 1 0.626043 0.628654 0.0471395 1.24743 -3.24491 -0.990679 -0.0870614 0.689808 
266 1 0.630585 0.672565 -0.000484164 0.520832 -3.26276 -0.388704 0.115396 -0.369675 
271 1 0.731258 0.617799 0.0506427 0.21319 -3.38147 0.0861743 0.191442 -0.124749 
272 1 0.679852 0.669292 0.0503109 0.772019 -3.26887 0.83875 0.00695986 -0.0840045 
270 1 0.738266 0.664424 0.999226 0.481776 -3.38266 -0.0724115 -0.0536499 0.00925746 
269 1 0.67654 0.624836 0.00229427 0.511466 -3.25804 0.477075 -0.0628144 -0.378817 
275 1 0.840637 0.604603 0.0500149 1.0193 -3.30072 0.0291794 1.01252 -0.0279784 
276 1 0.794855 0.658429 0.0476608 0.200873 -3.36934 -0.0206548 -0.308719 -0.286688 
273 1 0.78286 0.610674 0.999455 0.86861 -3.3383 0.385076 0.388975 0.308 
274 1 0.849385 0.650411 0.998638 0.22009 -3.41112 -0.0841758 -0.00644785 0.214049 
277 1 0.901368 0.600445 0.00252394 0.63186 -3.30687 -0.415406 0.165407 -0.404873 
279 1 0.958036 0.596309 0.046721 0.187314 -3.26116 0.137747 0.188927 -0.182029 
280 1 0.909854 0.644615 0.0448829 0.667604 -3.33896 -0.416734 0.437633 0.261853 
319 1 0.969696 0.683759 0.0444822 0.457602 -3.31574 0.469379 -0.202324 0.00163221 
278 1 0.964761 0.638925 0.997415 0.414726 -3.33943 0.357138 0.23182 0.107409 
317 1 0.914653 0.689067 0.996034 0.0455518 -3.32141 -0.0276079 -0.152168 -0.0170889 
288 1 0.0979935 0.767878 0.0438117 2.01174 -3.25406 -0.0565177 -0.2305 -0.256075 
725 1 0.104545 0.810654 0.0899071 5.88931 -3.28075 -0.0697201 -0.344436 0.494384 
284 1 0.0310211 0.722974 0.0442295 0.976139 -3.29178 0.183361 0.321714 -0.00854792 
323 1 0.0415136 0.815723 0.0415204 1.82256 -3.2765 0.451051 -0.232908 0.462749 
292 1 0.216063 0.74287 0.0455189 5.87085 -3.23446 -0.44703 0.584711 -0.444242 
327 1 0.165696 0.797336 0.0432867 7.75829 -3.33421 -0.0241775 0.20301 -0.715644 
686 1 0.156293 0.761768 0.0930925 5.79408 -3.29048 -0.0731343 -0.712401 0.460064 
693 1 0.294653 0.704999 0.10887 6.15281 -3.2311 -0.179575 0.865944 0.0262961 
296 1 0.298172 0.752453 0.0601016 7.85729 -3.31458 0.230449 -0.122687 -0.645006 
294 1 0.351424 0.745028 0.00432983 6.30055 -3.29899 -0.42163 0.26529 0.298177 
300 1 0.366523 0.785967 0.0555026 1.03606 -3.26589 -0.763773 0.718484 0.0469529 
697 1 0.354924 0.745349 0.109696 0.502143 -3.32945 0.0960071 -0.00367046 -0.169867 
333 1 0.302676 0.796404 0.00867533 6.6052 -3.35807 0.0100435 -0.37884 -0.0306858 
299 1 0.408457 0.741545 0.0558343 1.02744 -3.27125 0.65947 -1.02519 -0.0631333 
304 1 0.478137 0.772559 0.0517932 1.35676 -3.28831 -0.705611 0.239502 -0.125636 
301 1 0.462495 0.727046 0.004038 1.75611 -3.273 -0.0307864 0.780176 -0.405141 
698 1 0.419115 0.781837 0.104922 0.229262 -3.33327 0.0377731 -0.205045 0.0751017 
303 1 0.526097 0.726974 0.0511321 0.496362 -3.32592 0.20761 -0.215826 -0.0196586 
308 1 0.583303 0.770001 0.050078 0.821773 -3.28119 0.202677 -0.889335 -0.00121339 
302 1 0.52576 0.769223 0.999675 0.406859 -3.34595 -0.0867832 -0.247082 -0.138383 
305 1 0.579527 0.721467 0.000901184 0.625403 -3.37701 -0.38105 -0.0693262 -0.0764903 
705 1 0.583454 0.723156 0.101378 0.886038 -3.29579 -0.859231 -0.0715542 -0.0623176 
702 1 0.533901 0.772747 0.100319 0.830245 -3.31513 -0.0861329 -0.297017 0.0962867 
311 1 0.745643 0.707948 0.0470792 0.230889 -3.34568 -0.191963 0.230065 -0.236121 
307 1 0.632685 0.716182 0.0523748 0.658557 -3.28317 0.240628 0.933794 -0.383638 
309 1 0.683924 0.712397 0.00150671 1.03396 -3.33577 0.505754 0.442152 -0.263076 
312 1 0.696331 0.758383 0.0496386 0.663976 -3.40337 -0.32848 -0.347902 -0.227019 
306 1 0.63548 0.762599 1.0003 0.219499 -3.3285 0.136203 -0.17171 0.0845392 
310 1 0.746573 0.75364 0.992397 1.22642 -3.30829 -0.0390577 0.384167 0.933704 
351 1 0.755424 0.796354 0.0426099 0.554896 -3.32138 0.207252 -0.508664 0.110663 
315 1 0.857843 0.69782 0.0444473 0.35922 -3.32668 0.172702 -0.402374 -0.092144 
316 1 0.809847 0.746231 0.0445674 0.372111 -3.29324 -0.456456 0.404635 -0.512403 
313 1 0.801691 0.705082 0.996659 0.875037 -3.31329 -0.338243 -0.686954 0.140151 
355 1 0.869571 0.782675 0.0404253 0.798081 -3.3635 0.242992 -0.0963861 0.497388 
353 1 0.81464 0.790416 0.993135 0.684995 -3.328 -0.473208 -0.796318 0.1775 
314 1 0.864122 0.737336 0.992594 0.389632 -3.30359 -0.0757831 0.46577 0.240508 
320 1 0.922999 0.729885 0.0432781 1.17284 -3.30141 -0.441793 0.785622 0.134583 
359 1 0.982814 0.771784 0.0410888 0.479816 -3.34032 -0.146963 0.150667 0.235093 
357 1 0.925437 0.773292 0.993512 0.740051 -3.3516 0.145458 0.826417 0.104109 
318 1 0.977812 0.727752 0.993745 0.238739 -3.31338 0.0446614 -0.113997 0.15065 
328 1 0.110137 0.849129 0.0425251 6.78582 -3.3222 0.572366 0.0141128 -0.25285 
363 1 0.0625606 0.897917 0.0410313 7.40561 -3.28684 -0.0635275 0.140198 0.0588863 
722 1 0.0530819 0.855768 0.0924972 6.56841 -3.36031 -0.198149 0.0187727 -0.0201543 
324 1 0.993087 0.863794 0.0470824 1.55604 -3.30556 0.0774871 -0.351432 -0.184307 
761 1 0.00644429 0.907813 0.0931616 6.3931 -3.276 -0.46786 -0.489599 0.227488 
729 1 0.194254 0.810905 0.108222 7.69486 -3.22324 0.194613 -0.360662 -0.361865 
331 1 0.244477 0.800616 0.0555459 8.14741 -3.33564 0.106413 0.104648 0.242265 
332 1 0.192701 0.854919 0.058994 7.78567 -3.32075 0.358513 -0.254124 -0.436741 
726 1 0.144251 0.861808 0.107573 7.45488 -3.21994 -0.264522 -0.617893 -0.215319 
336 1 0.263751 0.886903 0.0643448 2.54846 -3.28685 -0.544689 0.271624 -0.944624 
733 1 0.253655 0.844747 0.10547 0.855835 -3.27675 0.204747 -0.0523066 0.355721 
330 1 0.252148 0.846524 0.010215 6.73761 -3.30961 -0.282681 -0.573705 0.199395 
335 1 0.316082 0.835193 0.0594582 1.15211 -3.29822 -0.434795 -0.192494 -0.374649 
340 1 0.374649 0.872109 0.0522848 0.864293 -3.34498 0.414332 0.295434 0.458229 
337 1 0.374333 0.826701 0.00513026 2.46037 -3.30417 -0.461342 0.163177 0.0431086 
694 1 0.304603 0.794142 0.105943 0.568147 -3.27596 -0.075245 -0.0565654 0.00642759 
734 1 0.3221 0.878947 0.103291 0.927302 -3.23556 0.0864941 0.187169 0.229823 
737 1 0.369088 0.828051 0.108195 1.09328 -3.27154 0.0862238 0.52399 -0.840813 
339 1 0.42785 0.825562 0.0582841 1.45827 -3.2555 -0.804039 -0.475176 -0.552543 
344 1 0.481683 0.862944 0.0533796 1.12579 -3.27082 0.785091 0.545593 -0.126903 
738 1 0.43443 0.867926 0.106847 1.15605 -3.34831 -0.293083 0.395544 -0.353014 
343 1 0.533515 0.812961 0.048871 0.763185 -3.26088 -0.0590723 0.813494 0.228861 
348 1 0.596337 0.855082 0.0519122 0.727403 -3.33551 -0.129845 -0.0339811 -0.28977 
742 1 0.544819 0.861891 0.0993978 0.867251 -3.32997 -0.429233 -0.327935 0.0252057 
745 1 0.594227 0.812049 0.0996427 0.988764 -3.30233 -0.558882 0.228451 0.424419 
347 1 0.643506 0.805669 0.0531086 1.19095 -3.27649 0.511088 0.0139136 -0.755326 
352 1 0.704706 0.841981 0.0409268 1.33272 -3.28176 -0.222948 0.232608 0.754553 
746 1 0.659104 0.850584 0.0966364 2.69584 -3.24089 -0.94171 -0.331015 -0.0545201 
750 1 0.760452 0.836626 0.0915538 0.786863 -3.34149 0.0120066 0.248297 0.218822 
389 1 0.710222 0.883496 0.993433 0.583152 -3.3293 -0.156836 0.425403 0.131599 
356 1 0.817589 0.832379 0.0423482 0.249651 -3.29619 0.0259532 -0.165051 0.587464 
354 1 0.871574 0.827721 0.997202 1.03147 -3.23344 0.691058 -0.330458 -0.385651 
391 1 0.767132 0.877981 0.0414108 0.988675 -3.28832 -0.231232 0.323276 0.598422 
350 1 0.758963 0.836201 0.994522 0.405627 -3.27927 0.224724 -0.185063 -0.373048 
393 1 0.822634 0.877255 0.997149 0.747416 -3.28794 0.163389 -0.39633 -0.213273 
395 1 0.880428 0.869629 0.0423299 0.830896 -3.32869 0.0337773 0.396047 0.677008 
360 1 0.932177 0.819001 0.0448201 0.646905 -3.33722 0.0357237 0.360608 -0.355893 
358 1 0.933791 0.864775 0.995631 0.604485 -3.33314 0.283653 -0.190791 0.0894675 
765 1 0.0905789 0.908553 0.102747 7.1877 -3.22565 0.531367 -0.242764 0.027553 
368 1 0.0991644 0.950743 0.055088 6.695 -3.30912 -0.151114 0.162391 -0.132622 
762 1 0.0473756 0.954825 0.105018 5.97853 -3.17778 -0.332689 0.262579 0.158089 
364 1 0.00940822 0.944709 0.0431984 7.77742 -3.3413 -0.060983 0.412889 -0.2884 
766 1 0.101346 0.995205 0.104375 0.712073 -3.29126 0.399209 0.311309 0.118005 
371 1 0.211523 0.939553 0.0525412 1.2821 -3.34324 0.338431 -0.184101 0.435733 
367 1 0.147985 0.905042 0.058302 8.03623 -3.30883 -0.0471553 -0.28882 -0.414192 
372 1 0.162974 0.988073 0.0572214 0.378413 -3.30534 -0.144254 0.196809 -0.333051 
730 1 0.200849 0.899054 0.107836 1.20894 -3.26232 1.03955 -0.18469 -0.0822207 