ITEM: TIMESTEP
3000
ITEM: NUMBER OF ATOMS
4000
ITEM: BOX BOUNDS pp pp pp
5.3467735120376336e-01 3.9965322648795663e+01
-3.0371753394040663e-01 4.0803717533940151e+01
-3.1149386141059504e-01 4.0811493861410277e+01
ITEM: ATOMS id type xs ys zs c_csym c_peratom fx fy fz 
4 1 -0.00161917 0.0466169 0.0509043 0.222065 -3.32992 0.109884 0.25678 0.17751 
8 1 0.100746 0.0451689 0.0524834 0.650985 -3.38841 -0.14557 0.348428 -0.0600781 
43 1 0.046149 0.0976341 0.0555179 1.12203 -3.30967 0.199952 -0.00270804 -0.667743 
402 1 0.0473233 0.0479822 0.101582 0.448811 -3.2873 0.483868 -0.0706464 -0.445434 
445 1 0.0981293 0.0991453 0.0985904 0.613292 -3.33793 0.765571 -0.197403 -0.13978 
441 1 -0.00483533 0.0970718 0.0987082 0.868544 -3.29782 0.0536898 0.309958 0.239253 
3 1 0.0491597 -0.00263311 0.0488035 0.205715 -3.32284 0.105439 0.0578638 0.418102 
2 1 0.0489372 0.0451155 0.00216765 0.650312 -3.30488 0.216648 0.489812 0.162549 
12 1 0.198709 0.0492873 0.0549672 0.702647 -3.30462 0.0698718 -0.254047 -0.438286 
47 1 0.151943 0.0968906 0.0482803 0.889193 -3.33338 -0.567716 0.17751 0.075544 
406 1 0.151008 0.0473451 0.105744 1.15435 -3.3251 -0.49342 0.272186 -0.699594 
449 1 0.198578 0.0989971 0.0998554 0.383291 -3.28265 -0.368668 0.159751 0.171576 
7 1 0.151409 -0.00261004 0.0520187 0.204774 -3.28978 -0.438247 0.0505741 0.405152 
409 1 0.200014 -0.00283887 0.105393 0.743846 -3.27251 0.358311 -0.0966166 -0.730128 
49 1 0.207408 0.0978661 0.00176573 3.04667 -3.32434 -0.957705 -0.0117083 -0.108842 
16 1 0.294796 0.0465937 0.0531692 0.902917 -3.3167 0.322803 0.106851 -0.509895 
51 1 0.250596 0.0978832 0.0525846 0.754986 -3.30152 -0.128225 0.129428 -0.0729701 
410 1 0.247608 0.0495839 0.101288 0.462576 -3.29959 0.192334 -0.328904 0.185202 
453 1 0.299382 0.0960635 0.102139 0.334256 -3.28908 -0.34799 -0.0518789 -0.0229771 
11 1 0.24537 -0.00296419 0.0524537 0.664574 -3.33081 0.34172 0.0514201 -0.0703018 
413 1 0.298357 -0.00493415 0.098434 0.402972 -3.29987 0.18946 0.149599 0.0904133 
10 1 0.249099 0.0449101 -0.000403145 0.998743 -3.30774 -0.122535 0.157247 0.235168 
20 1 0.398007 0.0462247 0.0487135 0.800105 -3.33026 0.253213 0.361907 0.198098 
55 1 0.347971 0.09562 0.0532906 0.446363 -3.30524 -0.421563 -0.351055 -0.703473 
414 1 0.3471 0.0464008 0.0975544 0.766835 -3.28408 0.253012 0.185459 0.399948 
457 1 0.400813 0.097104 0.100836 0.588861 -3.32983 -0.18785 -0.469482 0.337781 
14 1 0.348283 0.045485 -0.00194075 0.834436 -3.29876 -0.0412344 0.818154 0.219851 
24 1 0.495487 0.0499036 0.0516965 0.356967 -3.33217 0.442788 -0.267251 0.00402955 
59 1 0.450019 0.0994384 0.051843 0.465426 -3.28047 -0.166247 -0.337432 -0.0723352 
63 1 0.546535 0.0987059 0.0496669 0.4565 -3.35904 0.0442394 0.188299 0.2187 
418 1 0.451357 0.0499801 0.103413 0.610007 -3.32769 -0.0834821 -0.021643 -0.137318 
422 1 0.543881 0.0569528 0.102338 2.60956 -3.29534 0.740716 -0.792848 -0.100601 
461 1 0.495995 0.100598 0.102011 0.256956 -3.25584 -0.105992 0.169729 0.028106 
23 1 0.547547 -0.000734912 0.0481206 0.738532 -3.34712 0.357702 0.31458 0.368112 
421 1 0.501471 -0.00206444 0.101359 0.796277 -3.38917 0.113001 0.210181 -0.0917608 
19 1 0.447476 -0.000242835 0.0527673 0.65034 -3.29519 0.529928 0.408867 -0.195009 
28 1 0.599392 0.0530403 0.0468287 1.35625 -3.32501 -0.296803 -0.642419 0.293886 
65 1 0.598196 0.103221 0.00400891 0.680043 -3.27128 0.119571 -0.312844 -0.583188 
67 1 0.648231 0.100018 0.0508591 0.237567 -3.33596 0.429406 0.213267 0.0190881 
426 1 0.646399 0.0480313 0.099222 1.10282 -3.32405 0.21038 0.317435 0.1489 
465 1 0.59978 0.100529 0.0998909 0.699693 -3.32939 -0.324461 -0.0218748 0.105093 
425 1 0.59487 0.004361 0.100741 1.9053 -3.36326 -0.00149746 -0.363947 -0.0343602 
27 1 0.649017 -0.00129087 0.0529594 0.816879 -3.35802 0.176869 0.241206 -0.290306 
32 1 0.700121 0.0523408 0.0490477 0.505247 -3.3838 -0.130487 -0.176786 0.15584 
71 1 0.750312 0.102666 0.0513358 0.403155 -3.35661 -0.114588 -0.347358 -0.010862 
430 1 0.751315 0.0485098 0.101605 0.737856 -3.28106 -0.292541 0.550536 -0.407966 
469 1 0.698041 0.0993542 0.100426 0.26604 -3.38266 0.0116849 0.143102 0.0101202 
429 1 0.700705 0.00489027 0.100746 1.00679 -3.30824 -0.31409 -0.634711 -0.290754 
31 1 0.747803 -0.000504269 0.0492989 0.330201 -3.34683 0.0144436 0.254301 0.133301 
69 1 0.699861 0.104945 0.00146464 0.87033 -3.27786 -0.1597 -0.584678 0.476119 
29 1 0.697711 -0.000282876 -0.00203999 0.442072 -3.34657 0.0692077 0.143982 0.49882 
36 1 0.798216 0.0511371 0.0520531 0.44054 -3.32438 0.0946247 -0.260431 -0.393458 
75 1 0.85035 0.0989694 0.0500185 0.239716 -3.36488 0.359915 -0.212504 -0.140128 
434 1 0.850014 0.0461004 0.0989379 0.487687 -3.33641 0.202068 0.175495 0.0771555 
473 1 0.802406 0.0969763 0.0994892 0.577722 -3.27499 -0.269151 0.0655639 0.296859 
34 1 0.848652 0.0453872 0.00176443 0.667413 -3.31156 0.271932 0.764126 -0.122528 
38 1 0.956727 0.0452603 -0.00133703 1.81657 -3.27442 -0.713505 0.592697 0.0913124 
40 1 0.90012 0.0450516 0.0492354 0.561513 -3.34367 0.163787 0.241114 -0.0451789 
79 1 0.946618 0.0969643 0.05111 0.620412 -3.28301 0.292065 -0.255301 -0.219952 
438 1 0.945345 0.0490565 0.101071 0.932882 -3.30338 0.573075 -0.38652 -0.185663 
477 1 0.901014 0.0980192 0.101702 0.24009 -3.29462 -0.458595 0.244422 -0.0850092 
77 1 0.903012 0.0987486 0.000158776 0.404083 -3.33061 -0.205746 -0.133502 0.16122 
401 1 0.998949 -0.000222273 0.103628 0.996327 -3.34737 -0.231634 -0.315591 -0.600282 
437 1 0.902397 -0.00237681 0.103225 0.90825 -3.32005 -0.0472235 -0.0418021 -0.487326 
41 1 0.998373 0.0990502 0.000767219 0.287374 -3.31624 -0.0737834 -0.138455 0.21628 
48 1 0.100852 0.148635 0.0477209 1.21248 -3.32364 -0.276957 -0.197913 0.26499 
83 1 0.046036 0.197292 0.0531958 0.837774 -3.34949 0.142275 0.143712 -0.270248 
442 1 0.0482524 0.148647 0.099449 0.244672 -3.30983 -0.290732 0.10652 -0.123149 
481 1 -0.00282838 0.199076 0.102392 0.365686 -3.33216 0.162436 0.00169966 -0.306951 
485 1 0.0962635 0.196377 0.101588 0.844099 -3.30518 0.24292 0.583288 -0.100498 
44 1 -0.00712068 0.14807 0.050882 1.24761 -3.34057 0.564442 0.0721113 0.237395 
52 1 0.196073 0.14758 0.0530387 1.17065 -3.33131 0.328889 0.444934 -0.610589 
87 1 0.144394 0.200188 0.0519879 0.942208 -3.32877 0.78249 -0.0684225 -0.137796 
446 1 0.147505 0.150152 0.0996513 0.278151 -3.32951 0.197745 -0.238454 0.211837 
489 1 0.199193 0.19781 0.101378 0.302224 -3.38971 -0.321197 0.103612 0.095 
56 1 0.295822 0.149274 0.0544343 0.622601 -3.30949 0.39689 -0.492753 -0.419627 
91 1 0.250658 0.197911 0.0524787 0.593523 -3.29599 -0.777881 -0.0109782 -0.311017 
450 1 0.247475 0.148181 0.100756 0.332666 -3.30029 -0.15042 0.0525533 0.279621 
493 1 0.297529 0.196255 0.103266 0.731274 -3.30939 0.204355 0.0151384 0.207216 
60 1 0.39421 0.142812 0.0526951 1.37457 -3.22318 0.699254 0.961743 -0.107886 
95 1 0.343001 0.19924 0.051214 1.21084 -3.29671 0.685629 -0.362915 0.126854 
454 1 0.349166 0.141188 0.100905 1.58722 -3.25599 -0.244558 0.925418 0.384241 
497 1 0.396404 0.196998 0.09932 0.371887 -3.39393 0.0249691 -0.0483806 0.0189543 
64 1 0.4967 0.149636 0.0507261 0.287932 -3.31903 0.351526 -0.0300161 -0.101396 
99 1 0.44843 0.198651 0.0482137 0.501469 -3.33676 -0.32705 -0.329896 -0.125425 
103 1 0.550029 0.195093 0.0467016 1.15863 -3.32212 -0.107446 0.409769 0.667242 
458 1 0.447089 0.148252 0.0972179 0.735044 -3.30624 -0.161779 0.324306 0.559247 
462 1 0.546654 0.147911 0.100919 0.17075 -3.36247 0.235683 -0.0286495 -0.194959 
501 1 0.497714 0.197988 0.0990277 0.252285 -3.32032 0.389789 0.0901423 -0.00779652 
68 1 0.599883 0.149682 0.049555 0.234447 -3.31611 -0.0468058 0.26351 0.302905 
107 1 0.651794 0.202707 0.051839 0.625678 -3.34647 -0.22556 -0.400598 -0.325157 
466 1 0.648617 0.150923 0.100636 0.144399 -3.33676 -0.00135046 -0.23511 0.0627697 
505 1 0.598946 0.197329 0.101749 0.375792 -3.34881 -0.116813 0.248906 -0.232731 
66 1 0.650165 0.152654 0.00158776 0.394061 -3.38608 0.290483 0.0326215 0.224561 
72 1 0.701285 0.152291 0.0535425 0.519614 -3.30927 -0.251697 -0.457761 -0.263751 
109 1 0.706972 0.198505 0.00292781 2.03537 -3.32482 -0.886647 0.371899 -0.453683 
111 1 0.751272 0.197979 0.0520764 0.397932 -3.33235 0.409132 0.145991 -0.0314978 
470 1 0.753613 0.146759 0.101738 0.831125 -3.29143 -0.592111 0.381475 -0.153449 
509 1 0.699127 0.197632 0.101061 0.437622 -3.33839 0.302832 0.356957 0.338183 
74 1 0.851529 0.150433 0.00340492 0.815239 -3.38688 0.00248946 0.0679692 -0.337749 
76 1 0.803521 0.148627 0.0537036 0.786035 -3.29118 -0.359341 0.33727 -0.668216 
115 1 0.853207 0.202626 0.0508664 0.823923 -3.31301 -0.454389 -0.341237 -0.471854 
474 1 0.849045 0.146941 0.101423 0.570959 -3.30181 0.547954 0.317186 0.169444 
513 1 0.802159 0.198155 0.101319 0.321739 -3.33353 0.0450524 0.35788 -0.00827912 
81 1 1.00432 0.201801 -0.00143591 1.05387 -3.33858 -0.252771 -0.139124 0.132163 
78 1 0.950616 0.153157 0.000548174 0.506879 -3.28428 0.189358 -0.0305627 -0.102277 
80 1 0.904379 0.148447 0.0508666 0.916951 -3.31172 -0.545268 0.281862 -0.0341035 
117 1 0.899649 0.205513 -0.00374504 1.6096 -3.35761 0.0324321 -0.372078 0.445933 
119 1 0.951323 0.201739 0.0487414 0.398387 -3.32983 -0.0954238 0.155593 0.0625559 
478 1 0.947849 0.149476 0.103245 0.697786 -3.32281 0.252972 -0.0405908 0.0507967 
517 1 0.898229 0.199315 0.0971413 1.16489 -3.29866 0.362215 -0.0372044 0.702007 
82 1 0.0508327 0.251862 0.000831995 0.40358 -3.33892 0.146606 -0.206986 -0.105919 
88 1 0.0981695 0.249177 0.0539403 0.514816 -3.30538 -0.0727544 -0.0876188 -0.376608 
123 1 0.0517255 0.299217 0.0508948 0.344193 -3.26442 -0.124116 0.131949 -0.266077 
482 1 0.0487237 0.25155 0.100768 0.317934 -3.27991 0.466815 -0.632059 0.228784 
525 1 0.0995069 0.302027 0.099572 0.39118 -3.38506 0.334845 0.154035 0.279724 
84 1 0.00169947 0.252066 0.050109 0.31781 -3.3556 -0.398176 -0.109951 0.0575896 
521 1 0.00480861 0.298441 0.101053 1.66939 -3.29255 -1.12431 0.635911 -0.14862 
121 1 0.00318795 0.302848 -0.0012351 0.570583 -3.30744 -0.402035 -0.575238 0.0659712 
92 1 0.198604 0.249903 0.0516794 0.445627 -3.31494 -0.0365751 -0.765942 -0.162919 
127 1 0.15057 0.296381 0.0477395 0.678768 -3.28142 -0.333471 0.345802 0.479286 
486 1 0.148038 0.24945 0.100826 0.160994 -3.32511 0.0646605 -0.206484 -0.00767382 
529 1 0.19901 0.29795 0.0990621 0.301283 -3.30883 0.18031 0.146628 0.245536 
129 1 0.197697 0.297258 0.000777036 0.686357 -3.23623 0.142344 0.384346 0.151441 
90 1 0.245732 0.250888 0.000484011 0.477776 -3.29218 0.327427 -0.335789 -0.023771 
96 1 0.29576 0.246575 0.0469201 0.73779 -3.29316 0.17055 0.685896 0.291483 
131 1 0.246815 0.29781 0.0508134 0.327362 -3.3029 0.159079 0.267836 -0.289285 
490 1 0.24857 0.244614 0.100438 0.71882 -3.33282 0.0121298 0.427488 0.285235 
533 1 0.294006 0.296874 0.0979266 0.67577 -3.32728 0.500651 0.127069 0.226021 
133 1 0.298333 0.297868 -0.00175306 0.721197 -3.32202 -0.251449 0.0592809 0.451161 
100 1 0.397841 0.247546 0.0472772 0.37249 -3.35276 -0.0557798 -0.0613851 0.408477 
135 1 0.344796 0.298442 0.0482138 0.294476 -3.36885 0.139102 -0.0647591 0.044001 
137 1 0.400052 0.301281 0.000319437 0.690126 -3.31343 -0.439754 -0.188159 0.131568 
494 1 0.343866 0.246205 0.0981813 0.649982 -3.35495 0.374062 0.39288 0.224511 
537 1 0.396096 0.297473 0.0961621 0.421471 -3.31232 -0.0975852 -0.24038 0.262411 
104 1 0.499822 0.2452 0.0505036 0.693913 -3.33606 -0.150515 0.419394 0.105873 
139 1 0.446713 0.297142 0.0503538 0.337739 -3.29577 0.142725 -0.0242941 -0.0841401 
143 1 0.548738 0.299838 0.0524559 0.372602 -3.31709 -0.0478158 -0.0485637 -0.0147504 
498 1 0.447295 0.243776 0.0969139 1.28722 -3.31165 -0.104093 0.625452 0.364684 
502 1 0.553568 0.249953 0.0974288 0.970662 -3.36491 -0.435073 -0.0821838 0.398245 
541 1 0.495642 0.301273 0.0972032 1.2551 -3.31809 0.708201 -0.312278 0.139305 
102 1 0.547708 0.251021 0.00361729 1.1864 -3.3253 0.172149 -0.124922 -0.573577 
108 1 0.599489 0.246887 0.0492205 0.687805 -3.32305 0.227849 0.328887 0.0928127 
147 1 0.648731 0.301422 0.0514173 0.459574 -3.35409 0.190672 -0.306473 -0.296462 
506 1 0.649521 0.248169 0.101618 0.454601 -3.34825 -0.144458 0.16278 -0.0762873 
545 1 0.602252 0.302633 0.0994095 0.644064 -3.29053 -0.428181 -0.52306 -0.00156061 
145 1 0.597422 0.298943 0.00162618 0.593405 -3.35779 0.565378 -0.239137 -0.0686376 
110 1 0.748327 0.252803 -0.00154497 1.13763 -3.28941 0.167574 -0.875179 0.300354 
112 1 0.699771 0.251329 0.0498215 0.348432 -3.33856 -0.159846 -0.152062 -0.0487191 
151 1 0.747054 0.300295 0.0496776 0.523886 -3.32186 0.189797 -0.0678121 0.197376 
510 1 0.748824 0.248904 0.0961803 0.898003 -3.33116 0.0255194 -0.0692929 0.510201 
549 1 0.697797 0.297818 0.102575 1.25638 -3.31016 0.326145 0.177984 -0.39965 
116 1 0.800848 0.248705 0.0513074 0.461948 -3.35872 -0.0808764 0.0520312 -0.111742 
155 1 0.852101 0.300804 0.0475608 0.839813 -3.33888 -0.18159 -0.165187 0.551236 
514 1 0.852598 0.251017 0.101505 0.446996 -3.35687 -0.348178 0.0162623 0.0455896 
553 1 0.79925 0.299789 0.0996886 0.251656 -3.37623 0.4475 0.0702884 -0.0691999 
114 1 0.845095 0.251129 -0.00174853 0.960975 -3.30791 0.575445 -0.0299471 0.191131 
120 1 0.90127 0.252146 0.0498706 0.400616 -3.32018 0.0443728 0.0599459 -0.265031 
159 1 0.9486 0.305723 0.0507614 1.21014 -3.37829 0.0965626 -0.498413 0.0464513 
518 1 0.947566 0.250492 0.100748 0.556383 -3.34214 0.298462 -0.00523658 -0.274947 
557 1 0.898995 0.30066 0.101248 0.471617 -3.32081 0.0497064 0.0950828 -0.243669 
157 1 0.89992 0.300648 -0.00281976 0.420582 -3.3363 0.150966 -0.22514 0.380162 
118 1 0.953115 0.251548 -9.2442e-05 0.305009 -3.37501 -0.0996356 0.188492 0.00406873 
122 1 0.0531338 0.346168 -0.00317194 0.905875 -3.30743 -0.398287 0.655026 0.00922356 
128 1 0.0998417 0.346287 0.0459852 1.23947 -3.33896 0.339305 0.526633 0.616909 
163 1 0.04883 0.396566 0.0470214 0.464969 -3.34998 0.0825071 0.436088 0.0765883 
522 1 0.0468879 0.352205 0.0995721 0.60002 -3.33195 0.340722 -0.0278915 0.111967 
565 1 0.0982291 0.399118 0.0974518 1.00607 -3.27058 -0.332193 0.0365703 0.188148 
124 1 0.00187544 0.348584 0.0485432 0.26297 -3.29259 -0.0502039 -0.0778021 0.166607 
132 1 0.196357 0.349531 0.050939 0.874708 -3.33906 0.485333 0.0279863 -0.259499 
167 1 0.148609 0.399304 0.0578744 2.68142 -3.30212 0.145305 0.200068 -1.18409 
526 1 0.153704 0.350549 0.101806 1.16889 -3.32961 -0.599789 -0.340045 0.157602 
569 1 0.203791 0.401144 0.0991384 0.979645 -3.29068 -0.340675 -0.327856 0.213369 
126 1 0.151332 0.348458 -0.000969315 0.615092 -3.25938 -0.358124 0.502841 0.646127 
130 1 0.251178 0.350428 0.00321026 0.792364 -3.36501 -0.624681 0.0981797 -0.479154 
136 1 0.296108 0.3514 0.0482662 0.338597 -3.28007 0.526366 -0.0157751 0.360904 
171 1 0.248509 0.407864 0.0473262 2.24047 -3.27645 0.327163 -0.890864 0.37101 
173 1 0.300292 0.403291 0.000837405 0.315739 -3.35003 -0.150948 0.0215154 -0.0243419 
530 1 0.250355 0.350318 0.0966964 0.383339 -3.34164 -0.142228 0.0371701 0.291312 
573 1 0.300368 0.401696 0.0979532 0.511711 -3.36475 -0.288641 0.0413728 0.0350999 
170 1 0.247055 0.451845 -0.00144112 0.776642 -3.30464 0.471127 0.233068 0.0293692 
140 1 0.396069 0.348736 0.0502622 0.293604 -3.34873 0.156267 0.268364 -0.218441 
175 1 0.349297 0.404633 0.0511585 0.666351 -3.32909 0.110148 -0.553729 -0.216751 
534 1 0.346592 0.34897 0.0963742 0.553446 -3.3355 -0.0266086 0.0939938 0.292846 
577 1 0.400961 0.397468 0.102486 0.891259 -3.32442 -0.453501 0.022282 -0.181208 
134 1 0.346919 0.352879 0.00185839 0.441824 -3.34181 0.144922 -0.194323 0.0392857 
177 1 0.399325 0.402111 -0.00083116 0.449861 -3.31733 -0.077846 -0.211351 0.595012 
144 1 0.501078 0.351642 0.0496762 1.05714 -3.36397 -0.422798 -0.113337 0.382844 
179 1 0.446402 0.401039 0.0519086 0.62143 -3.38671 0.513692 -0.383369 -0.22488 
183 1 0.552479 0.39678 0.0535046 0.725848 -3.34073 -0.434957 0.718083 -0.240765 
538 1 0.445502 0.345781 0.0988265 1.23297 -3.27315 0.457279 0.747739 -0.233705 
542 1 0.551313 0.34964 0.103887 0.942404 -3.30515 -0.543759 0.0338173 -0.479473 
581 1 0.498826 0.40444 0.101695 1.06717 -3.28437 0.105147 -0.697332 -0.64223 
148 1 0.598603 0.350722 0.053052 0.499607 -3.29528 0.327908 -0.303613 -0.317718 
187 1 0.650119 0.397038 0.0489703 0.555118 -3.33847 0.201314 0.179708 0.269649 
546 1 0.653876 0.35094 0.0990612 0.628194 -3.30995 -0.0748805 0.311312 0.00582695 
585 1 0.601871 0.400795 0.10263 0.570416 -3.31373 -0.242698 -0.0232599 -0.356774 
150 1 0.745924 0.345801 -0.00445162 2.16855 -3.24862 0.550999 0.543711 0.817317 
152 1 0.701885 0.350776 0.0500727 0.409402 -3.36996 0.0426993 -0.0439989 0.015798 
189 1 0.701297 0.397788 -0.00119242 0.269743 -3.34838 0.104853 0.0682367 0.100163 
191 1 0.756316 0.3991 0.0511755 1.41914 -3.30414 -0.503049 -0.106679 -0.498146 
550 1 0.752126 0.348447 0.0997395 0.364447 -3.328 0.060116 0.169352 -0.0892907 
589 1 0.707056 0.403451 0.0976727 1.54718 -3.31729 -0.247688 -0.525509 0.0843077 
190 1 0.751026 0.44838 0.00372542 2.00911 -3.28288 0.386797 0.10775 -1.07168 
156 1 0.799783 0.347773 0.0476961 0.469763 -3.33387 0.0266333 0.142558 0.303643 
195 1 0.847929 0.400096 0.0450888 0.919855 -3.31454 0.0144338 -0.15124 0.506768 
554 1 0.850153 0.352897 0.103891 1.32739 -3.30575 -0.28169 -0.531455 -0.67075 
593 1 0.80165 0.400784 0.0990699 0.157966 -3.32739 0.113753 -0.0946511 0.302639 
154 1 0.847995 0.34632 -0.000275323 0.71147 -3.33283 0.125266 0.388805 -0.29944 
193 1 0.799035 0.400069 -0.00214306 0.425421 -3.31851 0.0468766 -0.218018 0.0805849 
161 1 0.999116 0.399776 -0.00163886 0.309036 -3.28284 0.490797 -0.249376 -0.55836 
561 1 0.998476 0.400115 0.0990369 0.356266 -3.31643 0.0892273 0.2107 -0.000638436 
160 1 0.896965 0.354449 0.0518568 1.63872 -3.31678 0.38757 -0.404599 -0.213646 
199 1 0.954827 0.397855 0.0457553 1.67015 -3.28981 -0.81717 0.127833 0.573813 
558 1 0.94998 0.353447 0.101894 1.12893 -3.2992 0.431047 -0.480287 -0.564489 
597 1 0.9008 0.403024 0.0976225 0.554414 -3.32529 0.124884 -0.0128321 -0.0541317 
197 1 0.900011 0.398351 -0.00150819 0.170926 -3.36563 0.0500156 -0.143347 -0.273251 
158 1 0.953529 0.349174 -0.000745223 0.616758 -3.32556 -0.556414 0.0149677 -0.323018 
168 1 0.0977837 0.451341 0.048366 0.570165 -3.30886 -0.070731 -0.436105 -0.217612 
203 1 0.0492647 0.503475 0.047183 0.804198 -3.36498 -0.0655407 -0.55243 -0.177809 
208 1 0.098164 0.550484 0.0436865 1.25768 -3.30785 0.404351 0.044749 0.49551 
562 1 0.0483744 0.446723 0.0980336 0.837157 -3.31507 -0.171828 0.0917629 -0.246519 
601 1 -0.00147152 0.502649 0.0963082 0.427228 -3.31329 0.168649 -0.0354599 -0.339136 
602 1 0.0489672 0.55168 0.0960743 0.494177 -3.32323 0.123627 -0.261656 -0.0184491 
605 1 0.095554 0.492456 0.0979029 3.01795 -3.26109 0.184142 1.0456 0.215179 
204 1 0.00065519 0.551554 0.0455465 0.331066 -3.28937 -0.175256 -0.131495 0.318324 
205 1 0.101377 0.500073 -0.00312857 0.371108 -3.33193 -0.247149 -0.193272 0.0538563 
172 1 0.19788 0.451001 0.0507834 0.536183 -3.33295 -0.333327 0.421539 -0.244699 
207 1 0.147334 0.501656 0.0497474 0.693404 -3.38132 0.28307 -0.220083 -0.214706 
212 1 0.198894 0.551543 0.04795 0.514667 -3.33938 0.429298 -0.256113 0.364796 
566 1 0.149037 0.450899 0.102983 0.800758 -3.268 -0.0515739 -0.252783 -0.506682 
606 1 0.146795 0.550032 0.0982201 0.575777 -3.2721 0.465836 -0.404483 -0.236848 
609 1 0.196707 0.498582 0.100117 0.517225 -3.30375 0.26451 0.500307 -0.258634 
166 1 0.146202 0.447405 0.000124259 0.767293 -3.32224 0.529147 0.375971 0.19846 
206 1 0.156421 0.549449 -0.00279523 1.24272 -3.30351 -0.692749 0.268473 0.0978514 
209 1 0.201001 0.499302 -0.00438075 1.00017 -3.32277 -0.201966 0.105578 0.600602 
176 1 0.298841 0.453959 0.0519863 0.534654 -3.33694 0.22335 -0.316052 -0.507406 
211 1 0.252352 0.502575 0.0509047 0.636037 -3.34623 -0.662352 -0.194755 -0.452067 
216 1 0.302911 0.550468 0.0527772 0.602057 -3.32487 -0.0924191 0.315773 -0.336805 
570 1 0.245949 0.451535 0.100815 1.18774 -3.24706 0.85661 -0.0579835 -0.386527 
610 1 0.250262 0.549307 0.0979383 0.350293 -3.32254 -0.236864 0.0736775 0.10233 
613 1 0.300869 0.498337 0.0979771 0.523211 -3.26627 -0.0379927 0.0741696 0.526871 
210 1 0.251529 0.551705 0.00214496 0.756179 -3.35109 -0.0101909 0.0862173 -0.0232542 
213 1 0.304104 0.505058 0.000146625 0.854255 -3.34954 -0.623517 -0.489406 -0.00322245 
174 1 0.349743 0.453754 0.00265664 0.335822 -3.33891 -0.262952 -0.0654477 -0.0495527 
180 1 0.400757 0.449939 0.0490242 0.404138 -3.29931 0.0413926 0.139712 0.045598 
215 1 0.354098 0.502336 0.0536329 0.819593 -3.25802 -0.372378 -0.325893 -0.854404 
220 1 0.401402 0.552397 0.0507949 0.478532 -3.33858 -0.00563082 -0.258321 0.0846888 
574 1 0.354754 0.450027 0.0988966 1.04036 -3.3097 -0.553849 -0.0960998 0.39688 
614 1 0.352834 0.545768 0.10046 1.20932 -3.25769 -0.193777 1.04127 0.109627 
617 1 0.401765 0.497603 0.0985415 0.716301 -3.29727 0.520493 0.255128 0.581492 
217 1 0.401109 0.504277 0.000814211 0.586422 -3.30904 -0.171045 -0.14096 0.188811 
184 1 0.500269 0.449532 0.05155 0.329099 -3.33611 0.239243 -0.529674 -0.189679 
219 1 0.452399 0.49692 0.0497247 0.615957 -3.30618 -0.330854 0.670349 0.546103 
223 1 0.551689 0.499458 0.0508407 0.280829 -3.30607 -0.113778 -0.209202 0.100251 
224 1 0.499625 0.550751 0.0532762 0.589905 -3.34949 0.241628 -0.438506 -0.129341 
578 1 0.447828 0.447684 0.10407 1.09805 -3.27544 0.0303831 0.621728 -0.451698 
582 1 0.551364 0.450973 0.101838 0.272017 -3.32849 0.380246 0.0227043 -0.323959 
618 1 0.450536 0.547013 0.101925 0.509432 -3.3119 -0.371113 -0.0942698 -0.233688 
621 1 0.501777 0.49621 0.0992114 0.79342 -3.33215 -0.212855 0.540555 0.239408 
622 1 0.554031 0.547857 0.0989214 0.925615 -3.33197 -0.527231 0.248419 0.443933 
218 1 0.451556 0.549081 0.00104643 0.304903 -3.33421 0.147012 0.255153 0.189035 
222 1 0.553663 0.548873 0.00611109 1.02258 -3.33363 -0.320715 -0.0484172 -0.654046 
188 1 0.601215 0.45026 0.0504516 0.552192 -3.35488 -0.0335578 -0.51304 0.505756 
227 1 0.652859 0.49533 0.0511665 0.835758 -3.34033 -0.123797 0.191281 -0.332761 
228 1 0.602376 0.549358 0.0508271 0.244479 -3.27065 0.392081 0.0708372 -0.110235 
586 1 0.653643 0.442802 0.101876 2.38067 -3.31923 -0.0670439 0.974692 -0.399916 
625 1 0.602298 0.50184 0.100643 0.666208 -3.33169 0.184229 -0.722742 0.290037 
626 1 0.650358 0.548757 0.0985379 0.932395 -3.31273 0.12103 0.539049 0.49762 
186 1 0.650948 0.445382 0.000470661 0.321425 -3.30424 0.126244 0.329838 -0.121014 
225 1 0.600756 0.49425 0.00302027 0.909321 -3.27243 0.169489 0.737131 -0.129856 
192 1 0.702072 0.447175 0.0452917 1.02614 -3.28984 -0.255178 0.214989 0.848002 
230 1 0.752421 0.551155 0.00216598 0.846021 -3.32629 -0.29734 -0.0155198 -0.441562 
231 1 0.750196 0.502169 0.0438699 1.07788 -3.33954 -0.124374 -0.395075 0.649488 
232 1 0.697267 0.552157 0.050229 1.37491 -3.30244 0.491679 -0.283113 -0.357875 
590 1 0.755032 0.451689 0.0965673 0.421333 -3.34859 -0.282808 0.254691 -0.0943268 
629 1 0.699783 0.502247 0.0967392 0.937781 -3.30811 0.601556 -0.492877 -0.0294401 
630 1 0.752206 0.550337 0.0930936 1.09032 -3.29408 -0.188857 0.047805 0.34061 
229 1 0.70125 0.496464 -0.00545465 1.55482 -3.31405 0.217218 0.224554 0.377073 
194 1 0.849306 0.448705 -0.00239428 0.33157 -3.31286 0.24532 -0.114064 -0.255768 
196 1 0.80311 0.451141 0.0468246 0.530776 -3.29012 -0.160429 -0.013375 0.364282 
235 1 0.846594 0.502247 0.0481082 1.05969 -3.2447 1.12962 -0.530669 -0.02727 
236 1 0.802536 0.549411 0.0503162 0.800064 -3.21043 -0.298599 0.621184 -0.70143 
594 1 0.85026 0.449755 0.099795 0.409452 -3.32985 -0.148715 0.0418184 -0.32274 
633 1 0.80187 0.502265 0.0969911 0.299549 -3.29883 -0.157014 -0.435625 0.250619 
634 1 0.851228 0.551913 0.0946585 0.610625 -3.3046 0.540772 -0.189318 0.529322 
233 1 0.803691 0.500532 -0.0014474 0.342302 -3.30915 -0.265008 0.0290087 -0.380236 
234 1 0.852905 0.549298 -0.00344865 0.535724 -3.31682 -0.527426 0.486121 -0.116899 
164 1 0.9987 0.450904 0.0452352 0.414892 -3.30867 0.497086 -0.035257 0.384214 
200 1 0.898798 0.447783 0.0454264 0.428858 -3.34463 -0.0349508 0.194818 0.185107 
238 1 0.952331 0.55171 -0.00381619 0.303556 -3.34321 -0.257004 -0.0710468 -0.161745 
239 1 0.947601 0.501334 0.0452752 0.383075 -3.32304 -0.124416 0.0882485 0.0320669 
240 1 0.899487 0.552304 0.0441681 0.524881 -3.36276 0.390034 -0.117031 0.351644 
598 1 0.951062 0.452595 0.0921873 1.3097 -3.29666 -0.22144 -0.440576 0.449748 
637 1 0.899495 0.496058 0.094439 1.05378 -3.33048 -0.118894 0.498046 0.137426 
638 1 0.946761 0.548046 0.0960984 0.742395 -3.37234 0.170864 0.360148 -0.225215 
237 1 0.894899 0.498332 -0.00382831 1.29022 -3.32277 0.671394 0.0262334 0.184882 
201 1 0.996277 0.499949 -0.000303847 1.00583 -3.31495 0.731433 0.153482 -0.511654 
198 1 0.949516 0.448995 -0.00107042 0.356561 -3.28792 -0.122082 0.04895 -0.244251 
243 1 0.0475035 0.602042 0.0484202 0.880437 -3.30875 0.149621 -0.00790493 0.146197 
244 1 -0.000171121 0.658602 0.0455112 2.9729 -3.29099 0.0721294 -0.773777 0.382021 
248 1 0.100954 0.647283 0.0492794 0.725928 -3.31799 0.380098 0.289977 -0.106588 
642 1 0.0534881 0.652673 0.0946025 1.91491 -3.29546 -0.699859 -0.590322 0.610127 
645 1 0.103204 0.596355 0.0986862 1.4403 -3.27909 -0.685933 0.876881 -0.430588 
245 1 0.100883 0.600018 0.000162863 0.488227 -3.36075 0.181129 0.0209192 -0.415909 
242 1 0.0499057 0.64988 0.000956103 0.544113 -3.31569 0.209274 0.240402 -0.246705 
247 1 0.153019 0.6014 0.048669 0.623527 -3.33789 -0.304601 -0.0858681 -0.0254417 
252 1 0.197847 0.654334 0.0473507 1.03907 -3.32366 0.160899 -0.409562 0.271418 
646 1 0.151708 0.65134 0.0999806 0.358488 -3.31722 -0.123562 -0.259673 -0.440642 
649 1 0.201201 0.599526 0.0991478 0.595035 -3.34426 0.0762985 0.0701616 -0.194059 
246 1 0.14876 0.648788 -0.00420404 1.01356 -3.31653 0.262521 0.08972 0.366839 
250 1 0.251466 0.651419 0.000724045 0.306313 -3.27968 0.309023 0.0469525 -0.0441942 
251 1 0.252501 0.608219 0.0490846 2.2785 -3.2684 -0.383315 -1.08586 0.137586 
256 1 0.300655 0.653475 0.0518721 0.416887 -3.32851 0.169689 0.0706165 0.0598523 
650 1 0.24666 0.650903 0.0985571 0.945707 -3.33796 0.560215 0.28229 0.201668 
653 1 0.297932 0.597989 0.0994411 0.901589 -3.33146 0.403634 0.385822 0.135471 
253 1 0.300655 0.600863 0.00054905 0.411915 -3.34772 0.0250262 0.147999 0.140984 
254 1 0.348436 0.65124 -0.000912793 0.590924 -3.35248 0.213222 0.0795767 0.575969 
255 1 0.350536 0.603812 0.0521909 0.787288 -3.36665 -0.154035 -0.465477 -0.0353521 
260 1 0.39997 0.648587 0.0509632 0.283667 -3.32144 0.196876 -0.0234633 -0.0328426 
654 1 0.350269 0.648168 0.105203 0.88531 -3.34131 0.0650418 0.192561 -0.47187 
657 1 0.402123 0.598297 0.102997 0.320917 -3.37187 -0.277701 0.11229 0.0400911 
257 1 0.401408 0.599991 0.00149127 0.198636 -3.36342 -0.0964279 0.163352 -0.0957967 
259 1 0.451487 0.597499 0.0532558 0.294369 -3.28852 -0.267184 0.493608 -0.302941 
263 1 0.550842 0.598527 0.0541898 0.303153 -3.30493 0.16585 0.0703711 -0.0328308 
264 1 0.504224 0.646387 0.0567018 1.59441 -3.31486 -0.616317 0.45076 -0.389748 
658 1 0.448031 0.650556 0.105271 1.10358 -3.34489 0.357697 -0.255867 -0.210087 
661 1 0.49588 0.599692 0.102229 1.07445 -3.26437 0.60703 0.0923108 0.183776 
662 1 0.551112 0.652608 0.105524 1.16336 -3.28401 -0.172795 -0.492338 -0.109818 
258 1 0.454407 0.646386 0.0014135 0.916487 -3.35365 -0.34482 0.407264 0.237021 
262 1 0.549684 0.649298 0.00429938 0.36603 -3.36431 0.0535411 -0.0670887 -0.405688 
267 1 0.653088 0.601232 0.0506074 0.528411 -3.34339 -0.473717 0.0964875 0.120654 
268 1 0.59964 0.648717 0.0511831 0.244024 -3.35605 0.263804 -0.0800178 -0.146998 
665 1 0.599601 0.600945 0.102583 0.419009 -3.3426 0.431884 -0.139426 -0.132637 
666 1 0.649523 0.649041 0.10128 0.483488 -3.3517 0.284932 -0.0927593 -0.315578 
266 1 0.65273 0.650414 -0.00237118 0.591451 -3.32446 -0.406388 0.12097 0.364946 
265 1 0.601676 0.597889 0.000791783 0.228157 -3.40128 0.000170869 0.131338 0.00102907 
271 1 0.751674 0.603223 0.0505092 0.561388 -3.2906 -0.0693773 -0.17604 -0.143856 
272 1 0.699566 0.652536 0.0475689 0.68207 -3.33382 0.278871 -0.176932 0.386807 
669 1 0.707423 0.603489 0.0987925 1.33157 -3.31256 -0.898914 -0.0279249 -0.0074718 
670 1 0.754127 0.654547 0.102141 1.35373 -3.30571 -0.539135 -0.0160378 -0.751495 
270 1 0.751037 0.647575 -0.000420986 0.517095 -3.33418 -0.0198717 0.452465 -0.268795 
269 1 0.69966 0.600434 0.000168319 0.275167 -3.32577 0.14656 -0.26373 -0.0490349 
275 1 0.852045 0.601729 0.0458929 0.488191 -3.36632 -0.0152017 0.100264 -0.037533 
276 1 0.798003 0.652638 0.0473034 0.504075 -3.33643 0.26053 0.0654625 0.130488 
673 1 0.804586 0.601417 0.096599 0.767038 -3.30352 -0.50049 0.21135 -0.188736 
674 1 0.849245 0.654671 0.095267 0.729918 -3.31714 0.0509764 -0.287758 0.247008 
641 1 1.00107 0.599262 0.0991424 0.663397 -3.36323 -0.263319 0.330238 -0.144453 
279 1 0.955605 0.603234 0.046014 1.35612 -3.34429 -0.453609 -0.14934 0.349225 
280 1 0.901386 0.649845 0.0495796 0.710241 -3.29012 -0.413525 -0.0954387 -0.478776 
677 1 0.899207 0.602971 0.0983827 0.481646 -3.3252 -0.29045 -0.395012 -0.164024 
678 1 0.948729 0.648342 0.0966947 0.715552 -3.28251 0.309441 0.217382 0.357075 
283 1 0.0539069 0.700856 0.05096 1.32953 -3.30143 -0.281178 0.355281 -0.491469 
284 1 -0.00246832 0.750352 0.0488903 0.407184 -3.33393 0.299367 -0.171893 0.0227758 
288 1 0.0985585 0.753931 0.0466922 1.68582 -3.28962 0.308857 -0.828762 0.319642 
682 1 0.0515304 0.746715 0.101009 1.03253 -3.31249 -0.505048 0.392133 -0.234086 
685 1 0.100595 0.70385 0.100509 1.70726 -3.26821 0.448864 -0.754877 -0.461606 
681 1 -0.00257891 0.700026 0.0998891 0.841832 -3.37949 0.155171 -0.0233614 0.0870483 
287 1 0.149009 0.699986 0.0483133 0.528802 -3.35532 -0.158328 0.0669491 0.0244016 
292 1 0.201636 0.749549 0.0494024 0.507562 -3.30123 -0.180649 0.592322 -0.0889188 
686 1 0.154017 0.749545 0.0963817 1.78374 -3.23741 -0.902342 -0.181178 0.324733 
689 1 0.1987 0.701903 0.10146 0.460773 -3.28908 0.588989 -0.233675 -0.318695 
291 1 0.247197 0.703602 0.0512942 0.834347 -3.31207 0.789759 -0.39061 0.158177 
296 1 0.302551 0.751441 0.0504616 0.408058 -3.29727 -0.60825 -0.271909 0.211136 