ITEM: TIMESTEP
11750
ITEM: NUMBER OF ATOMS
4000
ITEM: BOX BOUNDS pp pp pp
2.3131214045745323e+00 3.8186878595424893e+01
-2.1588294402664876e+00 4.2658829440265549e+01
-9.6472057867440320e-01 4.1464720578674473e+01
ITEM: ATOMS id type xs ys zs c_csym c_peratom fx fy fz 
8 1 0.0512371 0.0935231 0.0422539 1.69555 -3.28585 0.637477 0.139163 0.347762 
4 1 0.988781 0.0573633 0.0485315 7.46376 -3.23556 0.15232 -0.683204 -0.0820993 
405 1 0.0457815 0.0526168 0.0933354 0.885826 -3.27059 0.64276 -0.178777 -0.236324 
12 1 0.170651 0.0914014 0.0472965 2.14384 -3.29754 -0.343515 -0.772306 -0.0466467 
11 1 0.217082 0.0360396 0.0454966 0.231605 -3.33317 -0.00475656 0.169486 -0.0544038 
7 1 0.107194 0.0497561 0.0470333 1.01366 -3.31557 -0.38211 -0.291034 -0.496387 
406 1 0.110776 0.0892258 0.0929506 0.957098 -3.35024 -0.211725 0.581725 0.393573 
409 1 0.159684 0.0387131 0.0925598 0.363807 -3.26077 0.203292 0.640898 0.137586 
10 1 0.223991 0.0806862 -0.00315387 0.92487 -3.33115 0.191525 -0.010429 0.541812 
6 1 0.112219 0.0916948 0.997501 0.422469 -3.28502 -0.105472 -0.217419 0.331352 
9 1 0.161375 0.0433174 0.999595 0.550433 -3.30509 0.0160737 -0.14151 -0.140668 
16 1 0.279258 0.0748968 0.0463302 0.764971 -3.34524 0.197847 0.271483 0.0159386 
20 1 0.396467 0.0641177 0.052268 0.496734 -3.32081 0.192714 -0.390006 -0.216496 
24 1 0.508465 0.0552781 0.0506135 1.25185 -3.32696 -0.134017 -0.544238 -0.221221 
19 1 0.447237 0.0102237 0.0503118 0.494515 -3.33321 -0.00336241 0.127265 0.482001 
461 1 0.517202 0.0949203 0.0971419 0.6144 -3.2977 -0.271666 0.394463 -0.0469172 
21 1 0.506023 0.00317183 0.00725772 1.0345 -3.24586 -0.330239 0.187323 -0.193279 
28 1 0.626714 0.0397502 0.0508971 1.31473 -3.32647 -0.313255 -0.291201 -0.131531 
25 1 0.615637 0.996436 0.00168231 0.801849 -3.33364 0.0518084 -0.0999827 0.0780059 
23 1 0.556319 0.00300026 0.0526817 1.84818 -3.25782 0.796517 -0.473713 -0.0631252 
422 1 0.568798 0.0427169 0.0982815 1.08492 -3.32883 -0.282625 0.299405 0.284289 
465 1 0.626352 0.0869078 0.0947418 0.680306 -3.21546 0.154294 -0.0585149 0.409643 
32 1 0.730239 0.0375501 0.0484198 7.22249 -3.30614 0.162841 0.169564 -3.69582e-05 
67 1 0.677971 0.0847574 0.0505693 7.53846 -3.31376 0.518334 0.0999879 -0.269416 
27 1 0.679311 0.991327 0.0489938 1.64517 -3.26789 -0.41377 -0.0786855 0.548251 
469 1 0.736479 0.0815458 0.0984653 6.87678 -3.23885 -0.218627 0.0606927 -0.192494 
429 1 0.731658 0.987402 0.101351 1.19281 -3.34676 -0.0743944 -0.145425 -0.368471 
26 1 0.675087 0.0407542 0.997474 7.04044 -3.28478 -0.143151 0.0917041 0.355103 
36 1 0.805099 0.0530635 0.0339804 7.69504 -3.31372 -0.0890556 -0.310619 -0.0369144 
35 1 0.854037 0.000939574 0.0335772 6.78542 -3.30199 0.057366 0.287986 -0.0547671 
434 1 0.861211 0.0504994 0.0884106 7.25816 -3.29705 0.0762338 0.0218237 -0.518748 
401 1 0.986977 0.00923601 0.0919794 7.85605 -3.29414 -0.608558 -0.180354 -0.069613 
40 1 0.908593 0.0496001 0.0337993 6.62725 -3.305 -0.0309409 -0.360739 0.169702 
39 1 0.955292 0.997345 0.0299475 7.53598 -3.26389 0.765587 -0.351406 0.500181 
79 1 0.939873 0.104 0.0507423 7.10124 -3.30331 0.0648936 0.486187 -0.396004 
437 1 0.906754 0.99835 0.082073 8.57403 -3.30219 0.496246 0.11941 0.289628 
477 1 0.888557 0.116413 0.0970832 5.75263 -3.27109 -0.286067 -0.20918 -0.240155 
438 1 0.939197 0.063308 0.0973934 7.88293 -3.2967 -0.421601 -0.752694 0.243483 
43 1 0.00905002 0.144855 0.0466591 1.44463 -3.27097 -0.0196157 0.00587989 -0.364712 
48 1 0.0617398 0.191624 0.0529705 2.79915 -3.2807 -0.436865 -0.405454 -0.0204736 
45 1 0.0568386 0.133796 0.993479 3.25665 -3.30371 -0.139133 0.528342 0.306783 
42 1 0.0112233 0.188133 0.999577 1.07242 -3.25134 0.417304 -0.549058 -0.0388592 
47 1 0.107794 0.140732 0.0496447 3.34169 -3.35407 0.220226 -0.657342 -0.0540624 
52 1 0.177243 0.173641 0.0474668 0.764606 -3.3411 -0.0241574 0.244167 0.120746 
49 1 0.171421 0.131094 0.00170913 0.401413 -3.30942 0.19318 0.205674 -0.254239 
51 1 0.232781 0.127489 0.0522526 1.7435 -3.22701 -0.288959 -0.987344 -0.706661 
50 1 0.240153 0.167904 0.0054485 1.23629 -3.32391 -0.506058 -0.0703575 -0.466577 
46 1 0.115384 0.180677 0.00339463 1.43972 -3.3319 0.0483516 -0.143024 -0.155157 
55 1 0.34504 0.111935 0.0486455 0.618695 -3.30248 0.391745 0.168558 0.0555678 
56 1 0.296712 0.157103 0.0502879 1.88887 -3.24258 -0.0219236 0.989356 0.12604 
95 1 0.361204 0.203521 0.0472228 0.98919 -3.25363 -0.953095 -0.046224 -0.123256 
453 1 0.288969 0.116355 0.0972805 0.574425 -3.30893 -0.217529 0.152431 0.0891976 
450 1 0.231832 0.166426 0.0962614 0.838971 -3.23895 0.620096 0.687719 0.0824143 
454 1 0.353369 0.157805 0.0966481 0.373548 -3.3693 -0.162101 -0.00017604 -0.140824 
493 1 0.2991 0.202785 0.0964051 0.811671 -3.42216 0.0844935 0.389526 -0.119581 
59 1 0.460048 0.104744 0.0479037 0.597438 -3.27802 0.159322 -0.206105 0.614405 
60 1 0.409434 0.157904 0.0470438 1.62393 -3.22635 -0.264443 -1.08768 -0.0282117 
97 1 0.413027 0.196172 0.99539 1.15163 -3.2501 0.153824 0.707048 0.563451 
99 1 0.469934 0.190636 0.0477952 0.973156 -3.31177 0.493863 0.77359 -0.268966 
457 1 0.403526 0.108985 0.0983934 0.557301 -3.31774 -0.181606 0.110614 -0.447742 
458 1 0.461527 0.149251 0.0943921 0.833451 -3.33498 0.554033 -0.266629 0.317836 
63 1 0.573053 0.087927 0.0508973 1.79263 -3.27286 0.0311343 0.59983 -0.147329 
64 1 0.524179 0.143992 0.0482234 0.717025 -3.30805 0.0165871 -0.0891848 0.438875 
68 1 0.628616 0.137893 0.0495332 6.97316 -3.28898 0.11578 -0.457269 -0.0225227 
462 1 0.577695 0.136012 0.0977162 0.520312 -3.31529 -0.00656413 0.522088 -0.145585 
501 1 0.528337 0.186832 0.0956152 0.522304 -3.317 -0.490056 0.0765681 0.305377 
103 1 0.583828 0.187754 0.0548641 7.36731 -3.1899 -0.0121023 -0.501784 -0.98088 
505 1 0.642116 0.177583 0.0987396 6.24821 -3.32369 -0.0949937 0.563047 0.014848 
71 1 0.753944 0.103934 0.0375167 6.45432 -3.26483 -0.391919 -0.250136 -0.0538049 
72 1 0.702062 0.152787 0.0401283 6.28388 -3.27629 0.139436 0.153665 -0.0194777 
107 1 0.655485 0.20418 0.0363532 5.48547 -3.31053 0.388907 0.10241 0.084647 
509 1 0.715042 0.207879 0.0863851 8.9464 -3.22809 -0.969473 -0.719001 -0.235844 
466 1 0.68419 0.128663 0.0985661 6.22752 -3.25907 0.409317 -0.186866 -0.0335978 
470 1 0.756632 0.153737 0.0860713 7.18439 -3.31408 0.182862 -0.316415 -0.269182 
75 1 0.859188 0.0975599 0.035012 6.46241 -3.27837 0.609182 -0.0543092 0.0463801 
76 1 0.814999 0.148263 0.0345364 6.88406 -3.31879 -0.106111 0.345746 0.0753853 
513 1 0.786727 0.217659 0.0931844 0.534496 -3.20101 0.232481 0.0817967 0.344187 
115 1 0.840393 0.208841 0.0494961 2.36603 -3.27612 0.112701 0.0727155 -0.852083 
473 1 0.806589 0.0992023 0.0833062 9.41367 -3.30627 0.498059 0.359558 0.446927 
474 1 0.836782 0.167057 0.0942001 0.616907 -3.2789 -0.0896388 -0.465527 0.0243084 
44 1 0.958608 0.192715 0.0466983 1.72108 -3.15557 0.109853 -1.04156 0.319283 
80 1 0.894752 0.154625 0.0483357 6.67819 -3.32687 0.0769633 0.284614 -0.0714126 
478 1 0.907246 0.191655 0.10224 5.43534 -3.21998 -0.0549702 -0.50294 -0.331585 
83 1 0.00345528 0.237095 0.0529767 2.84119 -3.31581 0.446587 0.439205 0.349911 
88 1 0.0709941 0.273458 0.0515565 0.74382 -3.33781 -0.0500345 0.0181193 0.301363 
85 1 0.0626022 0.231426 0.00434727 1.8583 -3.27005 0.289161 -0.0693061 0.235899 
87 1 0.123168 0.222343 0.0534371 0.584278 -3.2286 0.386493 0.296919 -0.427787 
91 1 0.243408 0.215233 0.0474909 1.59857 -3.32002 -0.294582 -0.547666 0.230181 
92 1 0.184831 0.258424 0.0490943 1.24215 -3.35286 0.464117 0.249289 0.0469327 
86 1 0.125781 0.265006 0.00378543 0.874741 -3.31491 0.420988 -0.0871007 0.0281535 
489 1 0.18247 0.215329 0.0981869 0.294482 -3.36061 0.0266953 0.25337 -0.0288812 
490 1 0.244977 0.254411 0.0961922 0.341968 -3.28551 -0.0870274 -0.270775 -0.0490585 
486 1 0.130644 0.267285 0.0976157 1.00039 -3.3528 0.414757 0.00703722 0.46079 
129 1 0.194144 0.306693 0.00355547 0.415691 -3.33181 0.188436 -0.436112 -0.0973892 
90 1 0.246412 0.256819 -0.000752147 0.690346 -3.31691 0.1598 0.397166 0.408599 
96 1 0.304894 0.250998 0.0486946 0.605667 -3.33469 0.0862718 -0.0903261 -0.453671 
494 1 0.36305 0.248481 0.0905957 0.960364 -3.33453 -0.129239 -0.00402097 0.238155 
100 1 0.416674 0.241934 0.0407706 0.855717 -3.30696 0.65209 0.124881 0.295662 
139 1 0.482372 0.285359 0.043142 7.57751 -3.26987 0.259341 -0.509655 -0.421712 
537 1 0.43032 0.286857 0.0880556 2.25451 -3.25337 -0.898203 -0.493798 0.489435 
104 1 0.53308 0.234676 0.042271 6.95884 -3.32513 0.0027137 0.28516 0.243756 
143 1 0.558202 0.300016 0.0308805 7.26796 -3.28876 0.0162126 -0.118229 -0.233807 
108 1 0.610099 0.254264 0.0312786 7.48245 -3.32483 0.0808317 0.002117 0.241638 
502 1 0.587733 0.228387 0.0963663 6.45903 -3.23659 0.215963 0.385877 0.238568 
545 1 0.600849 0.302767 0.0828672 7.81872 -3.33253 0.655032 -0.0622093 0.613111 
112 1 0.709611 0.253258 0.0334243 6.39701 -3.31401 -0.175802 -0.289765 -0.326075 
147 1 0.658397 0.306953 0.0385445 3.16759 -3.15805 0.264651 -1.13076 -0.210274 
506 1 0.659103 0.252279 0.0851366 8.43888 -3.32149 -0.501082 0.229259 0.034552 
549 1 0.685135 0.316238 0.0955856 0.533175 -3.24385 -0.226114 -0.155154 0.412404 
111 1 0.760098 0.200093 0.0332459 6.39012 -3.26027 0.669312 -0.197675 0.479826 
151 1 0.734367 0.313262 0.0459218 1.29917 -3.31778 0.716951 0.0199259 -0.377928 
116 1 0.787329 0.259564 0.0464086 0.836344 -3.27459 0.134536 0.322944 0.038795 
510 1 0.732206 0.265782 0.0930374 1.28891 -3.24391 0.531507 0.62906 0.595599 
81 1 0.963667 0.232994 0.994343 6.42877 -3.20115 -0.20114 -0.00660762 0.252887 
481 1 0.952042 0.236827 0.107777 2.26048 -3.30315 -0.096826 0.574218 -0.410551 
84 1 0.950288 0.287105 0.0614747 6.5307 -3.3177 -0.124589 -0.788244 0.135418 
119 1 0.910888 0.233181 0.0488012 6.98712 -3.19476 -0.256122 0.882991 0.32396 
120 1 0.862149 0.277898 0.0548717 2.37395 -3.25147 0.130072 0.0976472 -0.176622 
118 1 0.917455 0.278865 -0.00197415 7.07329 -3.24666 -0.391869 -0.0616484 0.495768 
123 1 0.0184071 0.321063 0.0609755 0.261191 -3.31578 0.0521781 0.0199693 -0.099195 
125 1 0.0778345 0.31815 0.00793873 0.536241 -3.27315 -0.059116 -0.0930908 0.423395 
128 1 0.0876143 0.355295 0.0608765 0.66835 -3.33326 -0.309577 0.30043 -0.00800606 
522 1 0.0276963 0.359694 0.111568 0.808123 -3.29358 0.240486 0.461337 0.0501416 
127 1 0.140548 0.309264 0.050053 1.13063 -3.28932 -0.294558 -0.345254 0.516614 
132 1 0.205652 0.347347 0.0506883 0.515128 -3.25672 0.0298741 0.34047 0.450908 
529 1 0.199092 0.30609 0.0965058 0.849263 -3.31078 -0.47668 -0.556436 0.0869056 
526 1 0.147572 0.352216 0.100576 0.544189 -3.34158 -0.30538 -0.230768 0.151673 
130 1 0.2578 0.344995 0.00137284 0.62046 -3.29918 0.438221 0.0296871 0.306646 
135 1 0.368431 0.291547 0.0406335 0.949896 -3.32726 -0.161572 0.154455 0.412025 
133 1 0.309344 0.298665 0.996886 0.677153 -3.34684 -0.0213776 -0.0849565 0.343486 
131 1 0.254022 0.299777 0.0501094 0.480393 -3.31164 -0.226779 -0.262012 -0.653444 
136 1 0.317137 0.339691 0.0479576 0.578823 -3.34056 0.1184 -0.123529 -0.324185 
175 1 0.387478 0.382368 0.0502036 6.31358 -3.29315 -0.47731 -0.250974 -0.331254 
573 1 0.329775 0.38243 0.0948606 2.08184 -3.22383 -0.584259 -0.0668758 0.0810923 
530 1 0.263812 0.34454 0.094715 1.10045 -3.26748 -0.513858 0.248161 0.0527035 
134 1 0.379597 0.3416 0.997785 7.41483 -3.3307 -0.305738 -0.300699 -0.0640267 
140 1 0.43278 0.329706 0.0429149 6.84159 -3.27483 -0.192856 0.720771 -0.00890445 
144 1 0.505973 0.346885 0.0299206 7.96606 -3.34108 0.000794306 0.315531 -0.0345054 
148 1 0.612468 0.350867 0.036845 6.40837 -3.2313 -0.575048 0.204436 -0.0643353 
542 1 0.555206 0.354725 0.0858754 6.79725 -3.27085 0.0113704 -0.543311 0.081104 
183 1 0.558847 0.395467 0.037536 5.96368 -3.27805 -0.0939648 0.246337 -0.2928 
585 1 0.582726 0.410461 0.101974 5.20009 -3.29188 0.357716 0.207126 -0.261677 
581 1 0.508223 0.401553 0.0877132 7.70638 -3.273 -0.558108 -0.0557322 -0.0275105 
152 1 0.690674 0.364492 0.0454711 0.831298 -3.28744 0.0613411 0.0766278 0.175079 
187 1 0.635795 0.409817 0.0439135 1.35626 -3.25239 -0.0419928 -0.18039 0.758014 
546 1 0.633652 0.362997 0.098548 1.23915 -3.23401 -0.188145 -0.212173 -0.471552 
155 1 0.817084 0.326249 0.0599269 1.74376 -3.29202 -0.324292 0.103901 -0.561904 
156 1 0.768661 0.37628 0.0562694 0.700603 -3.33585 -0.238598 -0.229672 0.101362 
554 1 0.792948 0.385741 0.120943 8.21227 -3.31509 0.267476 0.0907845 -0.262075 
154 1 0.823982 0.37003 0.00652977 1.28134 -3.25874 -0.478762 0.308413 -0.0130007 
159 1 0.896058 0.332543 0.0649186 8.36353 -3.32318 0.370389 0.141875 0.0391534 
121 1 0.95609 0.328552 0.0181684 7.77508 -3.32137 0.110298 0.60978 -0.432983 
124 1 0.966995 0.37333 0.0654455 0.776238 -3.25039 -0.0671341 -0.484103 -0.213307 
160 1 0.851238 0.382631 0.0666523 7.14548 -3.31402 0.0124182 0.0781167 0.571939 
157 1 0.86653 0.323529 0.00298591 4.7316 -3.23852 0.526156 -0.264488 0.118385 
557 1 0.852347 0.339567 0.119042 7.56665 -3.33618 -0.340548 -0.067539 0.111143 
558 1 0.913966 0.37617 0.116184 0.383828 -3.29836 -0.110672 -0.0412937 -0.128722 
158 1 0.907285 0.380286 0.0210685 7.41413 -3.3303 0.0605384 -0.461863 -0.335209 
163 1 0.0314938 0.403746 0.0673335 1.62463 -3.32813 0.689523 0.531686 -0.109038 
165 1 0.0920996 0.40179 0.0156281 0.443604 -3.32052 -0.207415 0.343087 -0.222882 
168 1 0.102476 0.444042 0.0617133 0.78333 -3.31292 -0.284081 0.357027 -0.324806 
162 1 0.0389506 0.450627 0.0209797 1.37199 -3.34138 0.452469 0.275746 0.00680962 
562 1 0.0513 0.451498 0.109948 1.44297 -3.33316 -0.515025 -0.0205064 0.0600712 
167 1 0.150002 0.395918 0.0543424 0.752924 -3.26995 0.433277 0.513114 0.643511 
171 1 0.271225 0.390726 0.05207 0.881398 -3.29945 -0.508814 -0.559742 -0.583717 
172 1 0.215049 0.43724 0.0534265 0.311521 -3.33671 0.151937 0.00304705 -0.21388 
166 1 0.158963 0.446002 0.00834572 0.820825 -3.29245 -0.0175738 -0.277117 0.482311 
169 1 0.207857 0.389743 0.00739606 1.74502 -3.27099 0.0306917 1.21283 0.28284 
173 1 0.327839 0.38605 0.00435573 5.68572 -3.30001 -0.57748 0.0937971 0.1838 
176 1 0.330884 0.430791 0.0533169 6.48787 -3.23791 -0.233423 0.0081663 -0.0684114 
170 1 0.27396 0.436941 0.00827537 6.37333 -3.27679 -0.545592 -0.324951 -0.239339 
174 1 0.342509 0.445903 0.986817 7.06199 -3.23919 0.553568 1.04605 0.339823 
213 1 0.29435 0.498265 0.991049 8.07557 -3.2942 0.501904 0.196545 -0.349506 
179 1 0.457043 0.401694 0.0296317 9.55158 -3.27341 0.288222 -0.704199 0.577111 
180 1 0.39986 0.442784 0.0372563 8.32796 -3.19514 0.713737 0.179856 -0.102304 
578 1 0.455533 0.446177 0.0858662 9.61625 -3.29847 -0.108458 -0.0223681 0.159739 
219 1 0.459149 0.492258 0.0389037 6.9776 -3.27027 0.00421154 0.534252 -0.0581043 
577 1 0.436158 0.372941 0.095998 6.45932 -3.30711 0.217733 0.22157 0.161849 
178 1 0.455729 0.44722 0.989972 1.50468 -3.24208 0.382847 0.0249688 -0.593726 
217 1 0.408013 0.494232 0.988246 0.973071 -3.2473 -0.315454 0.0325469 -0.0357155 
621 1 0.488273 0.510796 0.106105 6.71333 -3.26866 0.0871351 -0.0341284 -0.44485 
184 1 0.508986 0.44792 0.0376488 7.06915 -3.27821 0.606702 -0.349849 -0.0157467 
188 1 0.586454 0.457733 0.048818 1.64886 -3.27756 -0.07315 -0.0130003 0.428623 
582 1 0.532354 0.458963 0.104167 6.09316 -3.23049 0.479164 0.0421774 -0.719433 
223 1 0.539468 0.506311 0.0552293 6.56484 -3.28754 -0.206016 -0.104924 0.0119633 
191 1 0.712614 0.424831 0.054907 2.64023 -3.32787 0.248465 0.199956 0.528184 
192 1 0.657443 0.480131 0.0585752 6.48463 -3.23437 0.0781095 0.237737 0.0848827 
190 1 0.722511 0.4735 0.0143276 5.59599 -3.29615 0.0309791 0.208495 0.293252 
195 1 0.802152 0.430451 0.0738897 7.29816 -3.31358 0.0645036 0.01142 -0.290009 
193 1 0.776003 0.420177 0.0101998 0.805126 -3.31807 -0.118636 0.197469 -0.194163 
196 1 0.760024 0.484602 0.0747457 9.20216 -3.23623 -0.30239 -0.847316 -0.405011 
594 1 0.816668 0.473689 0.117043 0.733192 -3.25863 -0.141279 0.0491733 0.306962 
194 1 0.815742 0.475594 0.0255705 7.25985 -3.27671 -0.221135 -0.104598 -0.230816 
197 1 0.859108 0.426559 0.0203598 7.23572 -3.27692 0.0721713 0.0802361 0.153483 
164 1 0.985349 0.458495 0.0706728 0.923462 -3.32758 0.211921 -0.183299 -0.205804 
161 1 0.978103 0.413639 0.0175192 1.03972 -3.25091 -0.0340929 0.46035 0.423412 
199 1 0.920615 0.422019 0.067297 0.516861 -3.29658 -0.189732 -0.318427 0.447409 
200 1 0.870039 0.469023 0.0708877 0.363377 -3.3078 0.247114 0.129551 -0.130478 
598 1 0.926727 0.462918 0.11875 1.05705 -3.28747 0.227528 0.0632527 -0.43024 
637 1 0.879488 0.515427 0.113825 0.550122 -3.3513 0.335634 0.0171654 -0.0578962 
198 1 0.929621 0.46371 0.0252129 1.33175 -3.28605 -0.143365 0.367749 -0.723508 
205 1 0.108289 0.495437 0.0148014 0.884645 -3.34056 -0.272997 -0.013717 0.0861622 
203 1 0.0498682 0.498952 0.0627261 0.800226 -3.34365 0.258137 -0.180601 -0.0199119 
208 1 0.112765 0.540467 0.0591974 0.925503 -3.23814 -0.0996665 -0.606892 -0.288056 
602 1 0.0609588 0.541283 0.108149 0.476724 -3.32594 -0.151143 0.0153817 0.306694 
243 1 0.0717944 0.590582 0.0610974 1.27739 -3.2584 -0.60064 0.0047444 -0.168587 
605 1 0.11451 0.491314 0.104221 0.950185 -3.34068 -0.449842 0.0194919 0.397529 
202 1 0.0605935 0.550895 0.00769879 2.31113 -3.29091 0.0284886 -0.522613 0.417118 
207 1 0.166819 0.485648 0.0590461 1.02165 -3.29888 0.0185936 0.425911 -0.477072 
212 1 0.227168 0.53427 0.0545339 7.88237 -3.31768 0.0807836 -0.461439 0.00822905 
606 1 0.17102 0.53404 0.103254 0.644177 -3.27386 0.305772 -0.457771 0.19037 
206 1 0.170316 0.533985 0.00839812 7.26011 -3.32775 -0.0691541 0.365367 0.105004 
249 1 0.200334 0.599567 0.993656 6.98897 -3.33483 -0.403599 0.037347 0.0325818 
215 1 0.358839 0.49054 0.037181 7.40892 -3.25911 -0.910453 0.591799 -0.124728 
211 1 0.279845 0.481296 0.0517732 8.6931 -3.31214 -0.120845 0.176053 0.61639 
216 1 0.302391 0.546278 0.0390129 7.39734 -3.29793 0.123536 -0.487312 -0.0153261 
255 1 0.354159 0.589978 0.0388393 7.48081 -3.25665 0.314638 0.108856 -0.17638 
614 1 0.35658 0.542174 0.0924152 7.80187 -3.3026 -0.064284 -0.114011 -0.300481 
214 1 0.351235 0.540958 0.986752 1.18082 -3.31446 -0.0968446 0.175648 0.0771295 
220 1 0.40364 0.541204 0.0371192 6.54089 -3.30392 0.452456 -0.0777143 0.14782 
618 1 0.436212 0.555486 0.103768 6.55813 -3.2603 0.131881 -0.0250677 -0.0270335 
259 1 0.434223 0.598731 0.057315 7.9739 -3.29643 0.345108 0.223539 -0.411815 
657 1 0.381178 0.602579 0.104312 8.03419 -3.24114 0.680919 0.408565 -0.360937 
218 1 0.467079 0.535412 0.988914 7.4891 -3.30844 -0.217853 0.0359429 0.412267 
257 1 0.412016 0.584439 0.990798 6.95765 -3.2919 0.440051 -0.142742 -0.0178489 
224 1 0.491884 0.557032 0.0566058 7.4196 -3.29415 -0.215509 -0.385878 0.0267555 
228 1 0.557296 0.589032 0.0590802 1.31595 -3.31605 -0.135824 0.0290222 -0.0509839 
227 1 0.603838 0.537452 0.054975 3.0907 -3.26245 0.10737 -0.450784 0.322275 
231 1 0.708895 0.526864 0.0663985 1.85884 -3.28565 0.0387907 0.599282 -0.0768562 
232 1 0.660214 0.57754 0.0643728 1.63064 -3.2916 0.235424 0.233593 -0.247835 
229 1 0.669405 0.530132 0.0108492 4.50933 -3.30433 -0.549911 -0.298194 0.346979 
226 1 0.614009 0.580289 0.0102173 2.4712 -3.31649 -0.286794 0.139858 -0.0509144 
633 1 0.767825 0.527198 0.119842 1.53676 -3.30878 -0.281388 0.174012 -0.133971 
235 1 0.819242 0.520635 0.0711109 1.07473 -3.25547 0.575008 0.0177717 -0.511505 
236 1 0.770117 0.570742 0.0679192 1.33071 -3.26323 0.503276 -0.50682 -0.345809 
275 1 0.84146 0.609712 0.0620442 0.696378 -3.35132 0.0279885 0.24321 0.232923 
233 1 0.769332 0.52276 0.0190375 0.982026 -3.32423 -0.293744 0.258841 0.0104454 
239 1 0.938382 0.509595 0.0668254 0.243346 -3.31402 -0.239146 -0.0870177 -0.00307423 
237 1 0.87918 0.512191 0.0192496 1.09987 -3.33305 0.182601 0.354508 0.377255 
204 1 0.00840945 0.554007 0.0606645 2.26109 -3.31664 -0.120006 -0.124987 -0.0233874 
240 1 0.891119 0.55986 0.061222 1.31063 -3.33544 -0.29992 -0.134224 0.345663 
277 1 0.902588 0.606941 0.0168129 1.16501 -3.32039 -0.271954 0.473418 -0.368118 
601 1 0.99407 0.501048 0.114506 1.20052 -3.24443 0.488997 -0.0373007 -0.383814 
238 1 0.951022 0.554869 0.0174008 1.18534 -3.27664 -0.166651 0.516499 0.117317 
241 1 0.0099245 0.59887 0.0107493 0.76579 -3.30314 -0.181288 -0.128362 0.0579668 
248 1 0.124847 0.633068 0.0577914 6.36982 -3.27872 0.568117 0.00392078 0.367719 
641 1 0.0099675 0.595155 0.109827 0.851096 -3.32726 0.291083 -0.207568 0.160391 
642 1 0.0787223 0.633204 0.112058 1.54417 -3.26009 0.0291283 -0.144362 -0.275741 
245 1 0.121292 0.590059 0.00770646 7.28603 -3.29983 0.243814 -0.195132 0.153096 
242 1 0.0719356 0.640004 0.0132169 8.57045 -3.30078 -0.540052 0.0061035 -0.509908 
247 1 0.171521 0.577291 0.0574037 8.23353 -3.29797 0.456521 0.829585 -0.187093 
252 1 0.200714 0.647954 0.0457835 7.10758 -3.27971 0.119457 0.0500742 -0.337692 
287 1 0.150226 0.697339 0.0418975 8.05378 -3.24884 -0.179153 -0.0237511 0.526176 
289 1 0.19795 0.694193 0.995011 1.54305 -3.28359 0.397119 -0.0665728 -0.318084 
246 1 0.14564 0.648537 0.99369 6.46007 -3.29555 0.117135 0.104392 -0.119701 
251 1 0.255276 0.595104 0.0386831 6.41176 -3.30401 -0.168475 0.168721 0.272607 
256 1 0.309543 0.642708 0.0371011 7.1667 -3.26625 0.439878 -0.0640301 0.430015 
291 1 0.262922 0.696253 0.0384563 8.19215 -3.29284 -0.295793 -0.336953 0.281957 
693 1 0.28639 0.712795 0.100232 8.17793 -3.21949 0.144377 -0.546231 -0.761155 
254 1 0.36936 0.634106 0.992703 7.75132 -3.28117 -0.600512 0.300462 0.0159204 
250 1 0.254515 0.64487 0.995699 1.27995 -3.25564 -0.32399 0.220823 -0.326331 
260 1 0.39148 0.650866 0.0554116 7.74008 -3.30385 -0.209763 0.0228659 0.0942527 
297 1 0.399829 0.696588 0.00966269 7.94484 -3.34116 -0.14594 0.193146 -0.377843 
264 1 0.455376 0.691148 0.0553088 0.379836 -3.33723 0.177666 0.167159 0.165069 
258 1 0.448503 0.644274 0.00694832 6.62971 -3.33828 -0.0580339 0.162394 0.0681135 
263 1 0.508999 0.63895 0.0574194 1.06509 -3.32043 -0.289586 -0.114136 -0.131851 
268 1 0.56891 0.681006 0.0595142 0.422907 -3.35148 -0.247668 0.358313 -0.0793992 
265 1 0.563959 0.635392 0.00735203 0.823572 -3.30163 0.053408 -0.136692 0.231922 
262 1 0.514414 0.683794 0.0107173 0.718892 -3.32269 -0.0223672 0.277629 0.0290725 
267 1 0.611719 0.631174 0.0579874 1.67363 -3.29699 0.431202 -0.102065 0.422556 
271 1 0.72635 0.61893 0.065408 0.389863 -3.24466 0.153841 0.0408631 -0.337911 
272 1 0.68469 0.667281 0.0602275 2.12364 -3.29519 -0.791969 0.774961 0.457411 
270 1 0.733682 0.667024 0.0128036 0.660822 -3.29377 0.384016 -0.275108 -0.0543004 
311 1 0.74526 0.712269 0.0606254 1.03241 -3.29005 -0.0915844 -0.815508 -0.170248 
269 1 0.669592 0.624011 0.018244 1.81644 -3.2882 0.414924 -0.14057 -0.484734 
266 1 0.622753 0.677172 0.0103255 0.739272 -3.3125 -0.0871249 -0.204582 0.0914035 
276 1 0.788191 0.658649 0.0617814 0.876612 -3.36593 0.186055 0.272869 0.354396 
315 1 0.854584 0.697759 0.0668252 1.33355 -3.28747 -0.0423802 -0.0244227 -0.49782 
273 1 0.784655 0.617158 0.0149858 0.50331 -3.33534 0.145127 -0.208882 -0.0250328 
274 1 0.849481 0.659501 0.0171631 1.36506 -3.36767 0.235581 -0.449601 -0.468765 
244 1 0.0163764 0.634589 0.06236 7.66165 -3.29723 0.236589 0.590893 0.237329 
279 1 0.949279 0.599814 0.0651792 2.16159 -3.25423 0.618158 -0.0587736 0.0368032 
280 1 0.90879 0.651969 0.066128 0.94828 -3.26169 -0.503949 -0.250681 -0.759047 
319 1 0.971607 0.690991 0.0608529 1.13498 -3.30383 0.0494749 -0.127624 0.115736 
278 1 0.968151 0.650567 0.0139068 3.36155 -3.26081 -0.7672 -0.399055 -0.181005 
281 1 0.0221319 0.694112 0.00348045 8.47389 -3.29382 0.0241649 -0.173032 0.156971 
283 1 0.0749455 0.684993 0.0569395 6.10242 -3.27889 0.146391 -0.147466 0.0444673 
288 1 0.102745 0.750078 0.0466543 6.34266 -3.27341 -0.384898 0.134851 -0.232573 
282 1 0.0447252 0.754041 0.991001 7.97505 -3.28819 0.273385 0.0328018 0.290946 
725 1 0.11194 0.796836 0.0939735 3.29084 -3.30806 -0.299048 -0.113414 -0.0698334 
285 1 0.099194 0.699846 0.993996 7.00927 -3.29181 -0.466203 0.140577 -0.186544 
321 1 0.996752 0.805498 0.989075 7.37288 -3.27373 -0.106106 -0.0175206 -0.0364246 
292 1 0.205247 0.741512 0.0377334 8.99912 -3.28878 0.410147 0.242023 0.00443146 
729 1 0.183763 0.811248 0.1007 10.5846 -3.18995 0.465514 -0.465404 -1.32572 
327 1 0.159632 0.794659 0.0372131 8.53424 -3.29341 0.055301 -0.087638 0.185274 
331 1 0.236166 0.807844 0.0476545 6.89289 -3.31819 0.13428 -0.193179 0.14958 
686 1 0.159226 0.743101 0.0941325 6.41679 -3.30867 -0.223501 0.0796572 -0.103636 
295 1 0.340087 0.707364 0.0534658 7.42155 -3.33066 0.150866 -0.0920591 0.0133699 
690 1 0.231899 0.757662 0.0967366 10.1618 -3.24827 0.386804 0.458803 -0.283071 
296 1 0.285297 0.75983 0.0514617 5.89706 -3.31249 0.366612 -0.268717 -0.154971 
293 1 0.316888 0.686618 0.990963 7.44935 -3.29912 0.215853 -0.00992965 0.0986343 
294 1 0.344792 0.750124 0.00344832 6.32783 -3.35424 0.184871 -0.0992023 0.103802 
299 1 0.409383 0.747643 0.0525869 1.22156 -3.29277 -0.465051 -0.698235 -0.0560586 
300 1 0.352436 0.79404 0.0523506 1.306 -3.29637 0.285901 0.322183 -0.39897 
304 1 0.469828 0.784418 0.0531883 0.529693 -3.32193 0.275144 0.291716 -0.184699 
298 1 0.411648 0.788585 0.00618165 0.598411 -3.31577 0.1631 -0.152211 -0.147399 
301 1 0.46753 0.734482 0.00678359 1.40623 -3.26613 -0.78545 0.41415 0.324578 
303 1 0.516632 0.734462 0.0558662 0.709731 -3.3158 0.349166 -0.530271 0.476735 
308 1 0.584952 0.773163 0.0569236 0.794342 -3.30643 -0.305243 -0.46733 0.347572 
302 1 0.529541 0.776189 0.0120426 1.27989 -3.3025 -0.338062 0.455818 -0.638132 
305 1 0.575558 0.727417 0.0113455 0.492128 -3.29237 -0.343765 -0.504605 -0.281117 
307 1 0.629311 0.721953 0.0599052 0.790714 -3.32982 0.0748967 -0.557196 0.17771 
309 1 0.684124 0.712852 0.0120909 0.770453 -3.28874 0.209444 0.0483526 -0.444071 
312 1 0.697803 0.75667 0.0530998 1.43923 -3.26101 -0.630925 0.327251 0.88407 
306 1 0.636302 0.761134 0.00924323 0.941578 -3.30583 0.395462 0.538524 -0.339436 
713 1 0.795832 0.705001 0.110642 0.675283 -3.33252 0.431159 -0.435016 -0.110435 
316 1 0.810998 0.749014 0.058806 0.701293 -3.27135 0.0333004 -0.147762 -0.0795821 
313 1 0.799628 0.706391 0.0136385 0.429283 -3.32822 0.193814 -0.300917 -0.32987 
710 1 0.751871 0.753006 0.105255 0.208863 -3.27563 -0.120065 0.185413 0.3614 
310 1 0.750621 0.752525 0.0080241 0.501329 -3.25475 0.311799 -0.221256 -0.272354 
284 1 0.0269292 0.733232 0.0546888 6.8844 -3.26822 0.0711391 0.557135 0.0624755 
320 1 0.919817 0.739282 0.0617858 1.51887 -3.3219 0.047581 -0.244119 -0.25563 
359 1 0.97302 0.788173 0.0504004 3.56963 -3.25902 -0.150946 -0.0335791 0.444916 
357 1 0.922731 0.79678 -0.000969389 8.32616 -3.26861 -0.235202 -0.273334 0.398984 
318 1 0.972091 0.744153 0.0061674 7.98102 -3.28591 -0.366353 -0.218493 -0.0404287 
323 1 0.0469654 0.803458 0.0402195 7.47776 -3.25575 0.528838 -0.456755 0.231484 
328 1 0.108294 0.846348 0.036311 8.19489 -3.25988 -0.229907 -0.390906 -0.376875 
363 1 0.0597778 0.893542 0.0314262 8.33874 -3.28526 -0.137941 -0.0173726 -0.12603 
765 1 0.0853417 0.910377 0.0895469 10.1462 -3.19074 0.126396 -0.189996 0.0601293 
365 1 0.123611 0.8879 0.982876 6.49801 -3.29242 -0.458284 -0.230187 0.231646 
722 1 0.0604251 0.844278 0.0936666 2.68485 -3.3213 -0.260611 0.159648 -0.377223 
332 1 0.182739 0.853113 0.0470909 8.17327 -3.25117 0.741058 0.308427 -0.277441 
371 1 0.20608 0.945265 0.0456227 0.684106 -3.30334 -0.283536 0.365971 -0.178887 
726 1 0.134839 0.862283 0.0922777 10.1628 -3.18785 -0.0693719 -0.311571 0.47978 
335 1 0.304645 0.848505 0.0472302 0.581623 -3.32867 -0.00396955 -0.174333 -0.222025 
336 1 0.249761 0.897273 0.0458723 0.581104 -3.28795 0.363397 -0.150239 0.0322791 
334 1 0.311706 0.892792 0.00317244 1.02982 -3.32804 0.251885 -0.215119 -0.2213 
375 1 0.318204 0.935271 0.048633 0.212044 -3.29237 -0.109091 0.113909 -0.204981 
773 1 0.260448 0.941722 0.0947445 0.28059 -3.35078 -0.256106 -0.155252 0.244096 
339 1 0.421125 0.83609 0.0533063 0.420492 -3.34052 0.0571374 -0.424405 0.265771 
340 1 0.372112 0.883801 0.0526318 0.587993 -3.30444 -0.221862 0.334873 -0.41081 
344 1 0.489997 0.869037 0.0550879 1.15725 -3.33726 -0.172169 0.573467 0.0174136 
338 1 0.430438 0.879139 0.00839219 0.772807 -3.2931 0.0283836 -0.128355 -0.363291 
337 1 0.369817 0.838446 0.00551225 1.49409 -3.31586 -0.702069 0.218898 -0.00913162 
343 1 0.539206 0.82108 0.0575429 0.965667 -3.33871 -0.471838 0.012024 0.0438029 
348 1 0.604641 0.85725 0.0537707 0.910024 -3.19879 -0.769613 0.148966 0.533367 
742 1 0.545635 0.864856 0.104479 0.583228 -3.3462 -0.316612 0.18867 -0.31356 
342 1 0.540546 0.863033 0.0074519 0.66481 -3.3291 0.287665 0.496938 -0.213296 
345 1 0.590274 0.817061 0.00825317 0.706693 -3.29622 -0.108897 -0.557311 -0.365957 
347 1 0.648015 0.808773 0.055804 0.413776 -3.26719 0.287758 -0.713444 -0.185897 
352 1 0.71373 0.846396 0.0510293 0.457523 -3.28533 -0.2459 0.0548614 -0.160482 
346 1 0.655373 0.848317 0.00759149 1.27082 -3.26274 0.617532 0.638274 -0.305103 
349 1 0.703932 0.797782 0.0080549 1.47578 -3.30728 -0.263989 0.899542 -0.466735 
746 1 0.659535 0.850957 0.0980317 1.68531 -3.31217 0.0157569 0.279393 0.895943 
355 1 0.873559 0.790527 0.0577426 1.81635 -3.31758 0.380527 -0.259647 -0.191441 
353 1 0.813177 0.793659 0.0105885 1.44058 -3.30259 0.413073 0.0619322 -0.118914 
351 1 0.75995 0.79592 0.0551315 0.465975 -3.2814 -0.111442 0.190263 0.168328 
356 1 0.829572 0.840526 0.0567701 5.42402 -3.27996 0.0560853 -0.485762 0.127521 
395 1 0.87378 0.892512 0.0459626 1.80472 -3.25081 -0.0620082 -0.239627 0.122564 
354 1 0.869802 0.842615 1.00134 6.69937 -3.30161 -0.51467 0.150408 -0.541226 
754 1 0.88367 0.829302 0.108284 8.42362 -3.35079 0.0497782 0.284508 -0.122529 
757 1 0.933448 0.779381 0.107872 6.30268 -3.31348 -0.184761 0.273686 0.262166 
324 1 0.997714 0.848381 0.0409148 7.81036 -3.28619 -0.0139389 0.693418 -0.279418 
360 1 0.919693 0.842428 0.0464929 1.79749 -3.25231 0.391214 -0.237212 0.661084 
3 1 0.0403481 0.00700587 0.0442156 8.12466 -3.36142 0.0550244 -0.00216776 -0.136465 
368 1 0.0930318 0.955507 0.0425642 7.17052 -3.32161 -0.352564 0.33338 0.151358 
762 1 0.033609 0.959342 0.0887264 9.98858 -3.26061 0.157479 0.0650937 0.045075 