ITEM: TIMESTEP
10250
ITEM: NUMBER OF ATOMS
4000
ITEM: BOX BOUNDS pp pp pp
2.0082452811395433e+00 3.8491754718859887e+01
-1.0472388945334026e+00 4.1547238894532583e+01
-1.0598738470328906e+00 4.1559873847032755e+01
ITEM: ATOMS id type xs ys zs c_csym c_peratom fx fy fz 
8 1 0.0959895 0.0531139 0.0477841 0.962556 -3.32267 0.377043 -0.266229 0.138509 
3 1 0.0473746 0.00103447 0.0467865 0.763035 -3.31337 -0.129114 0.222033 0.302092 
445 1 0.100258 0.0955513 0.0967256 1.37517 -3.35196 0.162706 0.254409 0.262426 
402 1 0.0450846 0.0526203 0.103264 1.45272 -3.28168 0.323678 -0.304253 -0.081332 
405 1 0.0965376 0.00615472 0.0970728 2.93083 -3.29693 0.146323 -0.222265 0.0912028 
12 1 0.207851 0.0503715 0.0423245 5.86463 -3.26636 -0.643485 -0.0288021 0.820605 
10 1 0.255275 0.0510425 -0.00459778 1.28454 -3.22594 -0.177182 -0.182721 -0.399429 
47 1 0.152313 0.0994949 0.0456835 0.673691 -3.32319 -0.0944601 -0.301361 0.545007 
6 1 0.150708 0.0478338 -0.00325686 0.857494 -3.29218 -0.143945 0.353068 0.398572 
16 1 0.293444 0.0508429 0.0499945 6.05852 -3.20281 1.00746 0.0358823 -0.254534 
410 1 0.251079 0.0493536 0.0983343 0.584634 -3.27538 -0.35516 -0.268243 0.535815 
14 1 0.348782 0.0492205 -0.000304297 0.308898 -3.33513 -0.216405 0.253458 -0.0953834 
20 1 0.398476 0.050553 0.0491513 0.194191 -3.26598 0.0697634 -0.0863203 -0.169153 
24 1 0.500669 0.0497027 0.0490639 0.570924 -3.35216 -0.11206 0.145696 0.400973 
18 1 0.44773 0.0513493 -0.00187424 0.432378 -3.30484 0.2149 -0.230482 0.33658 
422 1 0.551542 0.0470781 0.100479 1.01078 -3.33051 -0.149762 0.706146 -0.171683 
28 1 0.600225 0.0513641 0.0459189 1.7156 -3.26315 -0.0431426 -0.2024 0.806053 
21 1 0.501186 0.00160001 0.002824 0.434208 -3.31807 -0.172198 -0.0711168 -0.202813 
22 1 0.5483 0.0509685 -0.000863843 0.700587 -3.2378 0.171944 -0.0627465 0.194791 
27 1 0.650757 0.000977164 0.0546776 1.11152 -3.32834 0.0497353 -0.112047 -0.626259 
32 1 0.700196 0.053248 0.0502063 0.643482 -3.31332 -0.130459 -0.749063 0.0345503 
26 1 0.649068 0.0503348 9.17268e-05 0.317188 -3.27918 0.576091 0.0632937 0.159128 
31 1 0.747632 -0.001615 0.0490513 0.640504 -3.23824 -0.130835 0.198612 0.505868 
430 1 0.754281 0.0512955 0.103424 1.99967 -3.3548 -0.382959 -0.0824042 0.0204626 
67 1 0.649677 0.102001 0.0527611 0.693812 -3.25713 -0.561331 -0.371053 -0.206106 
429 1 0.702273 0.00201942 0.100176 1.09724 -3.28961 0.024948 -0.239585 0.0857155 
36 1 0.79572 0.0480794 0.0500555 0.907174 -3.30927 0.533905 0.0867368 0.279063 
35 1 0.848915 -0.000322054 0.0528477 0.307105 -3.28176 7.81184e-05 0.232662 -0.318456 
71 1 0.749414 0.0984284 0.0519586 0.505286 -3.24953 0.798184 0.253119 0.00191461 
75 1 0.847356 0.0967248 0.0515741 0.642245 -3.33659 0.159865 0.139257 -0.129381 
434 1 0.854406 0.0463144 0.103319 1.519 -3.21319 -1.14274 0.200072 -0.504627 
4 1 0.999472 0.0537717 0.0500331 0.731644 -3.30136 0.0379554 -0.530776 -0.0249202 
40 1 0.896763 0.0481681 0.0523437 0.707038 -3.28893 0.5499 0.275974 -0.343025 
437 1 0.905719 0.00253123 0.0985192 2.38604 -3.25884 -0.101549 -0.755584 0.428693 
43 1 0.0450503 0.103655 0.0479508 1.46483 -3.25123 0.540364 -0.326936 0.0244718 
48 1 0.104092 0.149705 0.0511013 0.780558 -3.30081 -0.171284 -0.142123 -0.138599 
45 1 0.0990537 0.102041 -0.00144154 0.247371 -3.34681 -0.0422747 -0.0355174 -0.0348064 
52 1 0.198679 0.150453 0.0475278 0.584759 -3.22318 0.184947 -0.432933 -0.136466 
50 1 0.252273 0.153198 -0.00132708 0.78887 -3.32469 -0.208007 -0.578841 0.115452 
446 1 0.155069 0.14493 0.100385 0.908804 -3.24711 -0.146193 -0.0673261 -0.255878 
46 1 0.150637 0.149834 -0.00207994 0.366321 -3.2651 -0.253861 -0.052335 0.442134 
89 1 0.199648 0.198829 -0.00368462 0.848142 -3.23926 -0.0558952 0.522512 0.477109 
51 1 0.25267 0.102564 0.0481683 0.53329 -3.2686 -0.233844 0.335246 0.0240502 
55 1 0.348678 0.0987271 0.0493238 0.606856 -3.28694 -0.0977119 -0.124115 -0.332197 
56 1 0.302565 0.152015 0.0520787 1.28244 -3.25227 -0.0316449 -0.113422 -0.159031 
53 1 0.298827 0.100995 -0.00255794 0.292582 -3.23401 -0.171468 -0.235423 0.00854934 
93 1 0.300943 0.202206 -0.00119264 0.339871 -3.24629 -0.136585 0.0059223 0.184334 
54 1 0.343723 0.148275 -0.00186242 1.41976 -3.27008 0.758133 0.326687 0.024726 
59 1 0.447463 0.0989116 0.0538053 0.979489 -3.28227 0.191762 0.021307 -0.656348 
60 1 0.395309 0.147868 0.0489089 1.29854 -3.26475 -0.0894023 0.18145 -0.115619 
64 1 0.500887 0.150275 0.0521294 0.579893 -3.3134 0.149556 -0.154633 -0.0584529 
58 1 0.448729 0.150506 0.00423707 1.14435 -3.27419 0.210489 -0.00238567 -0.405866 
57 1 0.400838 0.101668 -0.003958 1.51614 -3.27547 -0.415594 -0.107474 0.720667 
63 1 0.552397 0.100631 0.0543787 0.956291 -3.30291 -0.679764 -0.233027 -0.0354444 
68 1 0.595575 0.151843 0.0537446 1.38218 -3.27724 0.318327 -0.0300267 -0.00172506 
103 1 0.548148 0.199091 0.0492011 0.654722 -3.29971 -0.0396057 0.30533 -0.0510604 
462 1 0.546725 0.15076 0.106708 1.72113 -3.27822 -0.00144432 0.053514 -0.717885 
465 1 0.60028 0.103378 0.102858 0.767451 -3.33541 0.163273 -0.48363 0.00626113 
61 1 0.498079 0.100463 0.00201659 0.272525 -3.36831 0.122746 0.0755488 -0.0131347 
105 1 0.603818 0.201985 -0.000162018 0.679183 -3.35256 -0.142735 -0.21224 0.145192 
72 1 0.702151 0.145355 0.0487558 1.67585 -3.20466 0.267621 0.698403 0.497251 
107 1 0.653992 0.198607 0.0548174 0.994229 -3.33544 0.0210368 -0.0593641 -0.314971 
66 1 0.648338 0.148177 0.00649226 1.89819 -3.29833 -0.133555 0.147901 -0.572178 
70 1 0.750121 0.148156 -0.0016884 1.06258 -3.25638 0.0698906 0.0315334 0.356257 
76 1 0.800947 0.149883 0.0513882 0.372242 -3.31468 -0.420757 0.0180987 0.277534 
513 1 0.800938 0.199959 0.102265 0.426197 -3.25921 0.786318 0.01458 -0.425449 
74 1 0.850187 0.149357 0.00741774 1.67083 -3.2467 -0.0947881 -0.21716 -0.710986 
115 1 0.852 0.201615 0.0503308 1.17249 -3.32322 0.048489 -0.194214 0.61141 
44 1 0.997763 0.150751 0.0552865 1.3773 -3.1855 -0.618758 -0.0645612 -0.801245 
79 1 0.947626 0.098748 0.0522839 0.327599 -3.32289 -0.0766 0.0805414 -0.229311 
80 1 0.900035 0.149136 0.0529924 0.448371 -3.1911 -0.123215 -0.441538 -0.218609 
117 1 0.898442 0.198153 0.000526452 1.11286 -3.28801 0.162128 0.191798 0.0434619 
477 1 0.897175 0.0981617 0.101299 0.386175 -3.25685 0.37568 0.156984 -0.0239113 
83 1 0.0517696 0.19808 0.051468 0.333582 -3.32568 -0.243315 0.331112 0.108858 
88 1 0.103911 0.248949 0.0512281 0.691178 -3.31032 0.0610253 0.130156 0.140516 
123 1 0.0498965 0.29929 0.0511001 0.389916 -3.33825 -0.526301 -0.454818 0.0945499 
91 1 0.2469 0.199979 0.0462126 0.770923 -3.32266 0.18559 0.435721 0.391195 
87 1 0.153533 0.198522 0.0490215 0.738879 -3.19054 -0.567995 -0.213595 0.330982 
92 1 0.192793 0.247827 0.0488797 1.71324 -3.28228 0.575004 0.49533 0.118478 
86 1 0.149956 0.251088 -0.00567964 1.92363 -3.25237 0.140439 0.238376 0.897879 
95 1 0.35083 0.198879 0.0479393 1.05798 -3.3003 0.187691 0.41909 0.217223 
96 1 0.30554 0.252878 0.0503374 1.86048 -3.35521 -0.480661 -0.2663 -0.0782335 
135 1 0.347792 0.308066 0.0531829 1.81972 -3.18844 0.261853 -0.549806 -0.309444 
94 1 0.351588 0.248405 -0.00284552 1.89201 -3.26315 0.0371894 0.431851 0.312037 
133 1 0.304114 0.302232 0.00136958 0.757501 -3.36159 -0.0529412 0.0788325 -0.107632 
97 1 0.39963 0.199719 -0.00372658 0.914673 -3.30116 0.208993 -0.258886 0.261728 
99 1 0.44788 0.198666 0.0510761 0.785528 -3.35422 -0.183433 0.339856 -0.295045 
100 1 0.39253 0.255112 0.0536938 6.52225 -3.29322 0.279957 -0.505145 -0.419466 
98 1 0.447867 0.249656 0.00133346 0.558663 -3.25509 -0.277333 0.0752443 0.37621 
497 1 0.400149 0.206481 0.101931 1.78026 -3.31285 -0.122438 -0.503008 -0.230701 
101 1 0.497556 0.201915 -0.00252265 0.892099 -3.28971 -0.0138438 -0.224582 0.554979 
104 1 0.498627 0.249796 0.0475646 0.470143 -3.31318 0.150544 -0.0275837 0.092552 
143 1 0.547321 0.300456 0.048511 0.300862 -3.32617 0.215169 -0.00115545 0.0188821 
108 1 0.602688 0.245811 0.050498 1.23148 -3.29777 -0.0637856 0.45364 -0.11932 
145 1 0.599064 0.299881 -0.00232208 0.752711 -3.28603 0.317624 0.0582757 0.48015 
141 1 0.496832 0.299966 -0.000748022 0.586021 -3.23824 -0.00409898 -0.527381 0.216777 
112 1 0.702142 0.251279 0.0514444 0.369482 -3.29933 0.0245723 -0.0412502 0.296365 
110 1 0.753196 0.25124 0.00355549 0.743075 -3.32515 -0.397207 0.0448965 -0.200016 
109 1 0.701574 0.196699 0.00387401 0.961053 -3.33263 -0.0826092 0.371016 -0.333118 
147 1 0.650135 0.300628 0.0531344 0.617751 -3.27562 -0.164158 -0.439802 0.0815041 
506 1 0.650116 0.250517 0.0996052 0.27991 -3.33283 -0.0649623 0.128989 0.104619 
111 1 0.745923 0.199289 0.0551431 1.5249 -3.26718 0.567278 0.0451842 -0.514588 
151 1 0.752787 0.301356 0.0520302 0.431911 -3.24135 -0.386327 -0.183459 -0.191975 
116 1 0.799158 0.249761 0.053768 0.332723 -3.28753 -0.00725041 0.0102366 0.170461 
553 1 0.800212 0.303072 0.100122 1.27874 -3.30493 0.180432 -0.340061 0.768342 
84 1 0.993718 0.245396 0.0547975 1.91927 -3.28969 0.810643 0.143792 0.0294943 
119 1 0.946158 0.194683 0.0510861 1.86861 -3.25222 0.0254096 0.881913 -0.191454 
120 1 0.900046 0.252066 0.0597943 1.91221 -3.28286 0.236454 -0.282774 -0.97205 
159 1 0.954034 0.299095 0.0539322 1.45832 -3.25914 -0.871713 -0.0294894 -0.195347 
481 1 0.994997 0.199442 0.100476 1.53107 -3.21548 0.954706 0.0616393 -0.108526 
118 1 0.948108 0.247037 0.0069816 1.0622 -3.26011 -0.618791 0.193353 -0.377083 
128 1 0.0950556 0.347178 0.0493793 0.811833 -3.24512 0.530404 0.370558 0.0593095 
163 1 0.0502649 0.397427 0.0523279 0.765419 -3.26041 -0.279057 0.28967 -0.132956 
125 1 0.09881 0.300309 -0.0006899 0.49642 -3.27154 -0.39232 -0.114248 0.15997 
122 1 0.0431942 0.349435 0.00111209 0.867364 -3.3243 0.286407 -0.105185 0.150871 
165 1 0.0960296 0.397704 0.00168671 0.689739 -3.32301 0.551105 -0.107945 -0.000704122 
127 1 0.149331 0.301074 0.0512203 0.587957 -3.26171 -0.319466 -0.263616 0.148377 
131 1 0.24688 0.297034 0.0487997 1.41247 -3.29023 0.616594 0.20444 0.325129 
132 1 0.197664 0.34939 0.0503666 0.184941 -3.26999 0.407254 0.191794 0.162589 
126 1 0.148484 0.345474 0.00452996 1.09107 -3.23482 -0.145106 0.937747 -0.523497 
171 1 0.247248 0.398647 0.0505359 0.746157 -3.28734 0.152762 0.47492 -0.272012 
130 1 0.252 0.35318 1.29704e-05 0.502496 -3.31918 0.0173617 -0.299278 0.0956448 
533 1 0.297237 0.301274 0.100272 0.49294 -3.29908 -0.374258 -0.147076 -0.00229229 
136 1 0.299518 0.354077 0.05018 0.426764 -3.25374 -0.234779 -0.213156 -0.168934 
134 1 0.348922 0.358158 0.000183426 1.61027 -3.25607 -0.0454471 -1.05687 -0.0222107 
173 1 0.29944 0.404314 -0.00282604 0.532357 -3.23127 0.200346 -0.445481 0.265952 
139 1 0.446459 0.297368 0.0521566 1.63243 -3.27193 0.452919 0.467747 -0.0707343 
140 1 0.401207 0.351964 0.0522399 0.768795 -3.33986 0.27205 0.0743616 -0.238766 
179 1 0.451749 0.402069 0.0470288 0.633103 -3.24618 -0.738863 -0.252583 -0.27805 
581 1 0.498696 0.405236 0.0932303 2.16233 -3.22047 0.303661 0.0346549 0.744475 
137 1 0.399717 0.302625 0.00384581 1.03227 -3.30129 -0.307756 0.00410332 -0.230589 
177 1 0.398327 0.400995 -0.00219616 0.426914 -3.26903 0.37918 0.0537351 -0.131311 
181 1 0.502231 0.401013 -0.00199673 0.697086 -3.28958 -0.0734071 -0.203514 -0.0068708 
144 1 0.49572 0.350305 0.0494467 0.615607 -3.32973 0.172194 -0.133261 5.58824e-05 
148 1 0.603874 0.347969 0.0492301 1.44193 -3.32723 -0.786395 0.333338 0.349151 
542 1 0.546144 0.352829 0.0986687 0.962069 -3.29856 0.501907 0.11947 -0.287798 
183 1 0.550791 0.401347 0.0463716 0.84091 -3.29357 -0.119694 -0.357641 0.430119 
585 1 0.600078 0.398852 0.0967093 1.2192 -3.30951 -0.141177 0.138375 0.174466 
152 1 0.697451 0.349639 0.0518052 0.523906 -3.33796 -0.0166685 0.15941 0.532239 
146 1 0.648156 0.348583 0.000432998 0.372584 -3.26369 0.125664 0.105746 -0.282443 
187 1 0.650089 0.400363 0.0484046 0.706359 -3.26883 -0.372952 -0.0286057 0.360879 
546 1 0.648621 0.351865 0.106661 2.13441 -3.34775 0.174461 -0.334354 -0.403113 
589 1 0.699627 0.401627 0.100172 0.35695 -3.30222 0.0415218 -0.568624 0.14201 
155 1 0.853154 0.303769 0.0576445 1.53138 -3.23633 -0.0777778 -0.342941 -0.345031 
156 1 0.801462 0.348754 0.0521167 0.501098 -3.27964 0.0717711 0.719101 0.327602 
195 1 0.851481 0.401372 0.0495203 0.229156 -3.34305 -0.245583 -0.0298409 0.251836 
191 1 0.749925 0.399965 0.0517672 0.151577 -3.30949 0.164611 -0.303121 -0.133936 
593 1 0.79812 0.400986 0.102558 0.836661 -3.32378 0.534809 -0.0988483 -0.313106 
554 1 0.855274 0.352829 0.104704 1.21811 -3.30577 -0.0115978 0.0369903 -0.712227 
124 1 0.995392 0.35187 0.0554435 1.8828 -3.16593 0.717142 -0.248412 -0.695287 
160 1 0.901882 0.351898 0.0509888 5.94125 -3.31129 0.151851 -0.0651193 0.0561423 
597 1 0.903313 0.403769 0.101631 0.777209 -3.28646 0.331825 -0.709746 -0.299414 
168 1 0.100212 0.450588 0.0541395 0.714142 -3.26307 -0.432096 -0.202399 -0.57322 
164 1 0.00688031 0.449803 0.0513444 1.53087 -3.30887 -0.132291 0.086171 -0.0531228 
565 1 0.0992657 0.400432 0.0994484 0.518363 -3.29467 0.236466 -0.125881 0.401669 
201 1 0.00140963 0.49886 -0.00117472 0.295685 -3.2602 -0.3305 -0.201787 0.464628 
205 1 0.0976936 0.502522 -0.00250205 1.44643 -3.24506 0.298073 -0.0148506 0.524324 
167 1 0.149333 0.399811 0.0509074 0.255849 -3.32094 -0.242134 -0.107814 -0.0919988 
172 1 0.19879 0.451195 0.0521446 0.414604 -3.30741 -0.368085 -0.108519 -0.725342 
207 1 0.146573 0.49793 0.0538641 1.53369 -3.23509 0.296624 0.444309 -0.767277 
209 1 0.204494 0.499912 0.000799067 0.865628 -3.27556 -0.127765 -0.329549 0.257106 
166 1 0.144211 0.453343 8.01923e-05 1.71019 -3.3577 0.392349 -0.548378 0.337946 
175 1 0.349516 0.400504 0.0500408 0.541375 -3.24909 -0.239179 -0.00823558 -0.130476 
176 1 0.303895 0.453782 0.0485153 1.13912 -3.29504 -0.44993 -0.483525 -0.201898 
213 1 0.30227 0.501521 -0.000380077 0.336089 -3.29467 -0.53871 0.181297 0.281573 
215 1 0.352474 0.502784 0.0498614 1.14539 -3.30777 0.296861 0.110758 -0.383358 
180 1 0.394088 0.448967 0.0426545 6.43252 -3.21484 0.506012 0.245058 0.650802 
184 1 0.498797 0.449646 0.0452638 1.02435 -3.24245 0.218114 0.415649 0.491699 
578 1 0.445459 0.45342 0.0945152 1.58394 -3.32868 -0.0187312 -0.119699 0.305031 
223 1 0.545801 0.50244 0.0541174 1.2238 -3.28795 -0.256913 -0.267056 -0.516482 
188 1 0.598062 0.453078 0.0525408 0.684483 -3.2783 0.093835 -0.165506 0.0576187 
621 1 0.499659 0.498713 0.102703 1.35771 -3.27726 -0.23606 0.212275 -0.249112 
582 1 0.548825 0.450703 0.102193 0.902215 -3.26932 0.0696436 0.113174 -0.445495 
192 1 0.700523 0.447862 0.0495011 0.437221 -3.20468 -0.237505 0.286558 -0.401489 
227 1 0.655882 0.499391 0.0516687 1.635 -3.30686 -0.380252 0.186383 -0.102865 
590 1 0.747685 0.449332 0.0944486 1.57156 -3.15282 0.865065 -0.0491117 0.810437 
229 1 0.700683 0.499126 0.000214903 0.400905 -3.36269 0.165578 0.268743 -0.26841 
190 1 0.750559 0.448643 0.00118486 0.445634 -3.25743 0.356049 0.0661175 0.0642752 
196 1 0.799314 0.451945 0.0492254 0.513425 -3.32385 0.524284 -0.0648077 -0.145382 
231 1 0.752098 0.503889 0.0478765 0.888928 -3.23691 -0.530049 -0.11698 0.197298 
633 1 0.798141 0.501315 0.0971694 0.459672 -3.30761 0.217948 -0.0297218 -0.108242 
194 1 0.847221 0.448087 -0.00386192 1.39367 -3.32492 -0.00964749 0.417633 0.662427 
233 1 0.794782 0.502479 -0.00148446 1.34485 -3.30917 0.577196 -0.327595 -0.282918 
199 1 0.951262 0.401947 0.0484327 0.757978 -3.20207 -0.338881 0.0633285 0.363788 
561 1 0.993331 0.402549 0.0995522 1.95904 -3.34945 0.354523 -0.142897 0.40667 
200 1 0.902775 0.451764 0.0504039 0.524856 -3.28729 -0.753669 0.155285 -0.779793 
239 1 0.957416 0.498052 0.0528525 1.53449 -3.26851 -0.518677 0.445632 -0.699855 
598 1 0.948894 0.454509 0.0965828 1.57056 -3.20407 0.565125 -0.351401 0.780489 
601 1 1.00234 0.501061 0.103084 0.640558 -3.30861 0.187801 -0.0610242 0.00629695 
203 1 0.0504527 0.50355 0.0484186 0.750632 -3.26149 0.36056 -0.763041 0.346539 
208 1 0.100855 0.549402 0.0485748 0.575689 -3.33032 -0.188382 0.315115 0.0126001 
245 1 0.0973052 0.598556 -0.00124849 0.706791 -3.26385 0.120075 -0.370614 0.506105 
602 1 0.0501506 0.553353 0.101252 0.760635 -3.34733 -0.101586 -0.0717968 -0.138771 
204 1 0.00306673 0.548123 0.0489064 0.864511 -3.2329 -0.244028 0.672939 0.292129 
243 1 0.0496907 0.600774 0.0529098 0.580063 -3.30917 -0.102441 -0.509162 -0.189173 
212 1 0.203075 0.549731 0.049083 0.538217 -3.28354 -0.0557322 0.0193796 0.42706 
206 1 0.156203 0.546041 0.00382988 2.65164 -3.26318 -0.880481 0.487584 -0.539399 
211 1 0.250692 0.499977 0.0501619 0.400576 -3.27249 0.184906 -0.119578 -0.245864 
610 1 0.252891 0.546735 0.0987568 0.837434 -3.31508 -0.314276 0.25323 0.0232302 
210 1 0.253223 0.551658 -0.00474669 0.885756 -3.29795 -0.1941 0.0102878 0.37696 
216 1 0.301068 0.550363 0.0470558 0.202882 -3.31952 -0.0573338 0.123291 0.0499632 
251 1 0.249534 0.598989 0.0500343 0.4391 -3.28274 0.114433 0.0813783 -0.24889 
253 1 0.299494 0.602306 -0.00279591 0.263186 -3.36085 0.207938 -0.0154862 -0.136794 
219 1 0.446732 0.498027 0.049149 1.37896 -3.26409 -0.00173825 0.0199777 0.333709 
220 1 0.4053 0.550031 0.0480844 1.9108 -3.28773 -0.523567 0.30117 0.708956 
259 1 0.44817 0.606036 0.0515021 2.07268 -3.1889 0.361019 -1.19963 -0.321704 
617 1 0.394537 0.504512 0.103359 6.84529 -3.25026 0.83065 -0.334109 -0.245571 
618 1 0.452403 0.55339 0.104391 1.80232 -3.28351 -0.0149002 -0.483443 -0.747118 
218 1 0.445284 0.554024 -0.00204666 1.83418 -3.21812 0.493862 0.0687008 -0.354106 
257 1 0.399927 0.605748 -0.00088001 0.99446 -3.28223 -0.0360179 -0.392337 -0.270771 
224 1 0.492626 0.549781 0.0465415 6.38384 -3.35621 0.0514972 0.225527 0.344399 
622 1 0.544999 0.551463 0.0969635 1.41155 -3.29271 0.186425 -0.229019 0.124707 
228 1 0.600401 0.546676 0.050003 0.986895 -3.24747 0.306091 0.45646 0.284486 
263 1 0.550862 0.596365 0.0478788 1.25587 -3.28913 0.02764 0.436317 0.324876 
665 1 0.600475 0.598323 0.100875 0.763242 -3.29144 0.207505 -0.0371208 -0.555905 
661 1 0.504157 0.603159 0.0979595 1.41721 -3.26644 -0.563626 0.138669 -0.267194 
232 1 0.701192 0.551847 0.0452502 0.606298 -3.31124 -0.0441884 -0.18444 0.215196 
626 1 0.649788 0.549467 0.0978864 0.462841 -3.34066 0.571741 0.0198942 0.189455 
669 1 0.696529 0.602044 0.0969954 0.961626 -3.31591 0.224227 -0.113678 0.210898 
267 1 0.650765 0.599396 0.0466548 0.429508 -3.31401 -0.703752 -0.0451159 0.132829 
226 1 0.647343 0.55059 -0.0012061 0.541627 -3.30305 0.472012 0.0483424 0.148719 
630 1 0.747909 0.554504 0.10133 1.74723 -3.33855 0.173181 -0.417684 -0.489599 
235 1 0.851007 0.504581 0.0485626 1.06364 -3.28243 -0.619021 -0.94408 -0.269046 
236 1 0.800128 0.553718 0.0496338 0.634619 -3.26794 -0.406194 -0.485057 -0.0319085 
271 1 0.748853 0.600186 0.0452269 0.616454 -3.29587 0.084677 0.138674 0.462532 
634 1 0.851129 0.551188 0.0980815 0.686749 -3.20083 -0.710445 0.113045 -0.0916293 
275 1 0.849549 0.596598 0.0425009 2.78982 -3.18023 0.643199 0.590456 1.13889 
273 1 0.8018 0.601213 0.00027501 0.671606 -3.24511 -0.446185 0.00283831 -0.858467 
240 1 0.8984 0.548477 0.0527285 1.44172 -3.21001 0.978697 0.533993 -0.673527 
279 1 0.954375 0.600012 0.0510068 0.748167 -3.30525 0.0175832 -0.110602 -0.232422 
677 1 0.905012 0.602678 0.0962503 2.54362 -3.29488 -0.633528 -0.409451 0.302935 
238 1 0.950363 0.547863 0.00418086 1.47833 -3.27116 0.404526 -0.195479 0.0235627 
248 1 0.0953286 0.650593 0.048716 0.763411 -3.28021 0.312458 0.301747 0.146265 
283 1 0.0480705 0.705496 0.0494523 1.51736 -3.21464 0.272047 -0.565829 -0.00378302 
642 1 0.0503525 0.647271 0.101546 0.982048 -3.21045 0.201988 0.454363 0.0934996 
685 1 0.098294 0.698665 0.0970495 0.991611 -3.30201 -0.299742 0.225495 0.53631 
281 1 0.00248345 0.698967 -0.00164415 0.374686 -3.32483 -0.0114796 -0.113896 0.00328669 
247 1 0.148046 0.599825 0.047489 0.411065 -3.33219 0.0979694 -0.0361464 0.0570468 
252 1 0.198768 0.648963 0.0462366 0.692154 -3.29258 -0.119578 0.182694 0.190347 
287 1 0.147697 0.705103 0.0520104 1.09487 -3.30806 0.0520143 -0.21946 -0.543558 
646 1 0.147551 0.649642 0.0955122 0.716389 -3.26107 0.249608 0.296278 0.208511 
289 1 0.197195 0.702003 0.00288191 0.949145 -3.29731 -0.246704 -0.0596882 -0.494407 
255 1 0.350171 0.601499 0.0476074 0.341586 -3.32492 0.253573 -0.400397 0.2065 
256 1 0.300101 0.647185 0.0484855 0.656387 -3.28719 -0.144522 0.349485 0.0326589 
295 1 0.347453 0.695457 0.0466407 1.22852 -3.32297 0.489494 0.384222 0.356283 
291 1 0.248079 0.700893 0.0460533 0.667145 -3.27824 0.373118 -0.200225 0.584722 
654 1 0.353234 0.645212 0.0994865 1.24616 -3.31865 -0.306065 0.563627 -0.121058 
657 1 0.40096 0.59631 0.100654 1.05138 -3.28406 -0.303195 0.143212 -0.127655 
260 1 0.402137 0.650583 0.0492908 0.554775 -3.25168 -0.478464 0.742823 -0.308019 
299 1 0.455833 0.703416 0.0424703 2.58306 -3.30001 -0.429655 -0.759365 0.205958 
258 1 0.453322 0.650569 -0.00294767 0.42848 -3.28814 -0.0742806 0.390088 -0.0346777 
264 1 0.499675 0.648553 0.0453482 1.04907 -3.26905 0.431015 0.0731863 0.474575 
268 1 0.596346 0.650212 0.0468004 0.925058 -3.34411 0.546234 -0.0724513 0.0156246 
662 1 0.556867 0.649713 0.101181 2.07586 -3.26092 -0.535994 0.160065 -0.382424 
705 1 0.604587 0.700463 0.0966624 1.23637 -3.25989 -0.36281 0.499932 -0.175083 
265 1 0.597457 0.602228 -0.00283758 0.769152 -3.29729 0.323751 -0.184261 -0.0840798 
262 1 0.550201 0.65019 -0.0043995 0.364813 -3.21947 -0.194092 -0.173535 0.0158551 
269 1 0.69896 0.604542 -0.0027869 0.735985 -3.23463 0.465379 -0.869249 -0.121922 
272 1 0.697482 0.648206 0.0472678 0.642319 -3.2595 0.387786 0.358301 0.23913 
307 1 0.653768 0.702783 0.0441547 1.38746 -3.33346 -0.46909 -0.21911 0.296758 
709 1 0.70121 0.699004 0.0954429 0.588255 -3.33387 -0.113972 0.203395 0.346928 
311 1 0.748741 0.696888 0.0439959 1.39309 -3.31102 0.131012 0.419357 0.522898 
309 1 0.699303 0.697867 -0.00475365 0.796086 -3.24505 0.243047 0.319468 0.129092 
276 1 0.800407 0.649962 0.0506139 0.750977 -3.29523 0.569221 -0.0650622 -0.583956 
674 1 0.848866 0.650607 0.099988 0.42636 -3.29351 0.380011 -0.0400831 -0.0468593 
713 1 0.798004 0.699345 0.0998252 0.434942 -3.18877 0.297111 0.328674 -0.692696 
270 1 0.752138 0.64999 -0.0014808 0.460523 -3.28 0.0694737 -0.149305 0.0121576 
244 1 1.00359 0.649663 0.0520213 0.595019 -3.32827 -0.298665 0.294686 -0.371832 
280 1 0.896467 0.64912 0.0486137 0.813592 -3.3309 0.182605 0.126144 0.239457 
681 1 1.00252 0.696811 0.0991156 1.16046 -3.2752 -0.290679 0.230943 0.170369 
319 1 0.951004 0.700501 0.0502118 0.297157 -3.35243 -0.030902 -0.0484226 -0.00624559 
678 1 0.946396 0.653117 0.100003 1.53886 -3.26101 0.0690721 0.156591 -0.115373 
288 1 0.0961878 0.756983 0.0509224 1.60132 -3.33287 0.426867 -0.531671 -0.353784 
682 1 0.0468196 0.749745 0.0999251 0.557531 -3.27309 0.427713 -0.0200806 -0.148079 
323 1 0.0486935 0.803415 0.0510534 0.747621 -3.28146 -0.322777 0.0747936 -0.177674 
292 1 0.203009 0.751932 0.0512298 0.662428 -3.26951 -0.484216 -0.227943 -0.20482 
729 1 0.201375 0.797419 0.100877 0.476297 -3.24538 -0.0642104 0.187853 -0.336686 
686 1 0.151117 0.749407 0.100481 0.552043 -3.31827 -0.360039 -0.0158995 -0.126241 
690 1 0.252871 0.747087 0.0985559 0.618932 -3.32094 -0.0108179 0.314421 0.185636 
296 1 0.300595 0.749405 0.0466818 0.510585 -3.26917 -0.172924 -0.270046 0.101447 
694 1 0.348119 0.747888 0.0971135 0.516981 -3.30796 0.0198012 -0.220547 0.236709 
300 1 0.402142 0.746858 0.0498211 0.880622 -3.30347 -0.0695626 0.127059 -0.229864 
698 1 0.45216 0.745284 0.0979443 0.762255 -3.2593 -0.0737023 0.318601 0.0375935 
339 1 0.448747 0.802839 0.0479855 1.09602 -3.30029 0.125135 -0.533242 -0.172223 
304 1 0.504029 0.74797 0.0468692 0.979915 -3.26087 0.052302 0.66071 -0.0976211 
697 1 0.401206 0.699528 0.0985339 0.623302 -3.33192 -0.274063 -0.239576 -0.137185 
303 1 0.545847 0.696491 0.0488852 1.78144 -3.28443 0.699923 0.43692 -0.0963682 
301 1 0.507612 0.70105 -0.00720962 1.82682 -3.22554 -0.77499 -0.319192 0.150307 
701 1 0.498804 0.694413 0.0981024 1.35921 -3.27948 0.194975 0.270959 0.296569 
308 1 0.598935 0.750657 0.048643 0.426372 -3.36128 -0.342679 -0.388667 0.297403 
745 1 0.595395 0.800009 0.100252 0.355455 -3.33369 0.148465 -0.0268509 0.0304582 
702 1 0.546059 0.74746 0.101726 1.51995 -3.27954 0.775217 -0.215618 -0.381638 
302 1 0.55232 0.747726 -0.00553645 0.778107 -3.24655 0.109522 0.430562 0.327929 
312 1 0.702927 0.752472 0.0480871 0.529339 -3.3021 -0.272011 -0.014683 0.177055 
749 1 0.703774 0.801637 0.0990921 0.600039 -3.31044 -0.421034 -0.0177107 0.056751 
306 1 0.650116 0.751001 -0.00205743 0.44755 -3.29997 0.156676 -0.176701 0.169864 
315 1 0.847849 0.703033 0.0505487 0.645314 -3.32633 0.205825 -0.247831 -0.0893084 
710 1 0.750383 0.749522 0.0987727 0.348834 -3.29583 -0.0163455 0.196841 -0.106423 
351 1 0.751292 0.803149 0.0493989 0.270206 -3.31453 0.30649 -0.15662 -0.200518 
316 1 0.803213 0.753604 0.049302 0.962145 -3.28275 -0.591555 -0.174743 -0.170567 
714 1 0.846778 0.751948 0.0998413 0.440646 -3.20427 0.2289 -0.464277 -0.24346 
284 1 1.00127 0.751298 0.0476902 0.355358 -3.28677 -0.53301 0.422664 0.136946 
320 1 0.902016 0.750677 0.0426084 2.43169 -3.31462 -0.159336 -0.105945 0.696817 
359 1 0.946881 0.801509 0.0469755 0.559019 -3.33347 0.166283 0.00159145 0.261967 
328 1 0.101702 0.848099 0.0544774 1.0746 -3.26445 -0.48832 0.107352 -0.302175 
725 1 0.0989542 0.799598 0.102265 0.424178 -3.23826 -0.351455 0.00226829 -0.523324 
722 1 0.0470073 0.845956 0.101529 0.720026 -3.27056 0.193984 0.34009 0.0926848 
322 1 0.0518028 0.850079 -0.00128941 0.728535 -3.22152 -0.561829 0.586937 0.625975 
327 1 0.15241 0.799959 0.0525174 0.711149 -3.27735 -0.485884 -0.2658 -0.322876 
332 1 0.200602 0.845761 0.0471797 1.62666 -3.30977 0.105661 0.573064 0.487496 
769 1 0.196952 0.901854 0.104257 1.19874 -3.26683 -0.245697 -0.42929 -0.275751 
331 1 0.252981 0.797512 0.0487502 0.917862 -3.2973 -0.0751722 0.416563 0.324399 
371 1 0.246994 0.899149 0.0496017 0.764092 -3.24576 -0.14324 -0.306216 0.141993 
367 1 0.147306 0.89744 0.0511294 0.58963 -3.25597 0.217171 0.126164 0.484392 
726 1 0.151638 0.850048 0.101481 0.723249 -3.32637 0.218222 -0.00167394 0.0876151 
335 1 0.350953 0.797243 0.0502439 0.580894 -3.304 -0.0127033 0.46105 -0.322399 
336 1 0.297781 0.852342 0.0503788 1.19194 -3.29852 0.164471 -0.782442 0.284309 
734 1 0.352368 0.847002 0.0990984 0.933058 -3.26375 -0.306526 0.296191 -0.106949 
334 1 0.351753 0.853518 -0.00171757 0.779825 -3.24268 -0.154037 -0.290908 0.521832 
375 1 0.352622 0.89599 0.05409 1.53497 -3.25215 -0.285729 0.592615 -0.519645 
730 1 0.245403 0.84855 0.102876 1.12686 -3.35768 0.13645 0.147195 -0.360443 
733 1 0.302109 0.800521 0.101713 0.745255 -3.32888 -0.292508 -0.226255 -0.195605 
340 1 0.402598 0.851319 0.047571 0.533765 -3.25334 -0.00779751 -0.172928 0.217799 
344 1 0.499392 0.851878 0.0505583 0.561382 -3.30047 -0.378484 0.192531 -0.0518145 
379 1 0.45086 0.903023 0.0488653 0.424989 -3.33723 -0.11154 0.0341034 0.335193 
741 1 0.500039 0.794667 0.0939036 2.55587 -3.23427 -0.299887 0.588336 0.37707 
338 1 0.451279 0.849814 -0.00286864 0.4941 -3.28828 0.416378 0.149848 0.0565065 
343 1 0.547314 0.804602 0.0472656 1.90621 -3.18021 0.109059 -0.729754 0.260152 
348 1 0.595765 0.850163 0.0486339 0.556269 -3.25042 0.216372 0.237203 0.412151 
383 1 0.54895 0.901142 0.051695 0.262967 -3.29835 -0.115917 0.0386552 0.0101177 
347 1 0.647015 0.801248 0.0510506 0.309005 -3.2844 0.426899 0.0372496 0.352792 
352 1 0.699666 0.851765 0.0515509 0.340196 -3.28214 -0.405355 -0.270435 -0.128066 
789 1 0.702374 0.895874 0.100147 0.794304 -3.29686 -0.516115 0.421082 0.140069 
346 1 0.648729 0.850105 0.00318831 0.737702 -3.31362 -0.104392 0.26025 -0.487198 
355 1 0.852956 0.801896 0.0482079 0.50481 -3.32197 -0.0921552 0.0300672 0.18622 
750 1 0.752788 0.850531 0.0980352 0.537308 -3.17891 -0.200299 -0.834862 0.358265 
356 1 0.802967 0.853827 0.049513 0.652153 -3.30204 0.289592 -0.39661 -0.37735 
391 1 0.749202 0.897611 0.0502707 0.609335 -3.21514 0.0382919 0.517252 -0.433424 
753 1 0.802666 0.80024 0.0994348 0.332706 -3.28093 -0.604944 0.199065 0.082043 
754 1 0.848789 0.849072 0.101853 0.467503 -3.27943 0.213569 0.108693 -0.0544978 
324 1 0.998503 0.854936 0.0491401 1.46221 -3.30601 -0.143726 -0.65576 -0.227703 
360 1 0.898554 0.853163 0.0503541 0.667008 -3.26632 -0.217863 -0.0548044 -0.260442 
757 1 0.897653 0.797733 0.103719 1.29381 -3.24622 -0.155911 0.148565 -0.655104 
761 1 0.999675 0.895141 0.100833 0.830922 -3.26782 -0.00631221 0.358126 -0.163863 
361 1 0.997761 0.898942 -0.00150782 0.880376 -3.30711 0.111028 0.345444 0.394598 
363 1 0.0473618 0.901829 0.050754 0.80642 -3.28344 0.466707 -0.141682 -0.0619895 
765 1 0.0960826 0.893271 0.104355 2.01384 -3.33223 0.119842 0.625551 -0.132212 
368 1 0.0988982 0.949753 0.0496502 0.272737 -3.32057 -0.141428 0.0888683 -0.0603271 
364 1 0.00136624 0.951335 0.0500017 0.460929 -3.26931 -0.0759505 -0.0550447 0.219434 
762 1 0.0514458 0.950207 0.102807 0.984179 -3.25097 -0.602347 -0.195073 -1.07852 
362 1 0.0501542 0.953069 -0.00196336 0.427568 -3.333 -0.176988 -0.279238 0.000500299 
11 1 0.25204 0.999033 0.0499606 0.563152 -3.29841 -0.105609 -0.504255 0.126647 
7 1 0.150605 0.998679 0.0504611 0.727083 -3.32375 -0.0628457 0.314131 -0.282365 
372 1 0.197784 0.943784 0.0518745 1.4497 -3.2624 -0.120839 0.784527 0.0307456 
770 1 0.248777 0.944456 0.103324 1.11575 -3.20041 0.00292436 0.468137 -0.361717 
370 1 0.252671 0.950528 0.00309434 1.08645 -3.358 -0.254523 -0.229188 -0.131233 
773 1 0.29595 0.897065 0.0984359 1.22498 -3.27223 0.515446 -0.217665 0.455084 
15 1 0.344202 1.00176 0.0475922 6.10211 -3.29925 0.170643 0.0266676 0.380413 
376 1 0.301583 0.946848 0.055942 1.74266 -3.32351 0.0299965 0.00436768 -0.510808 
374 1 0.347017 0.949829 0.000263967 0.780281 -3.34925 0.254408 -0.131706 0.0625618 
774 1 0.350268 0.94818 0.105633 1.44964 -3.25515 0.26159 0.00246227 -0.379705 
413 1 0.301307 0.995317 0.100541 0.910945 -3.27972 0.18494 0.503572 -0.135235 
777 1 0.396725 0.89891 0.101755 0.908278 -3.25328 0.803227 0.150247 0.150246 
380 1 0.396816 0.953876 0.0518028 0.824045 -3.34276 -0.116019 -0.398187 -0.0411359 
19 1 0.448739 1.00158 0.0495699 0.121907 -3.30817 0.0904321 0.0115297 0.12318 