ITEM: TIMESTEP
11500
ITEM: NUMBER OF ATOMS
4000
ITEM: BOX BOUNDS pp pp pp
2.2623087173353671e+00 3.8237691282664059e+01
-1.7094905002021314e+00 4.2209490500201241e+01
-1.2113911518153035e+00 4.1711391151815384e+01
ITEM: ATOMS id type xs ys zs c_csym c_peratom fx fy fz 
8 1 0.0662563 0.079315 0.0471628 1.83383 -3.31452 0.301515 -0.142387 -0.0731677 
4 1 0.006548 0.0395038 0.0387584 2.27197 -3.25887 0.0309271 0.588916 -0.362124 
405 1 0.0597819 0.0275469 0.0872145 3.4268 -3.25956 0.351564 0.55639 0.686543 
12 1 0.173377 0.0773046 0.051033 0.556844 -3.28842 0.441873 0.0433162 0.121943 
11 1 0.224208 0.0267175 0.054562 0.763523 -3.31285 -0.398439 -0.0914525 -0.492535 
7 1 0.120627 0.0329517 0.0479918 1.91936 -3.22363 -0.429215 -0.543523 0.351045 
406 1 0.118824 0.0782119 0.0958221 0.494299 -3.35904 -0.326458 -0.0399271 0.349986 
409 1 0.16907 0.0298658 0.100955 1.06874 -3.32518 -0.0421557 0.000314579 -0.274132 
10 1 0.225765 0.070694 -0.00102624 1.41132 -3.28769 -0.0402606 0.347049 0.607964 
6 1 0.127494 0.0714865 0.00326452 7.02581 -3.21873 -0.602354 0.968797 -0.915932 
9 1 0.174051 0.0259507 0.00281535 5.76995 -3.23191 0.149192 -0.166323 -0.117032 
16 1 0.282224 0.072568 0.0497625 0.204506 -3.36555 -0.0624819 0.00982585 -0.0888446 
20 1 0.391887 0.0652538 0.0507149 0.31883 -3.24008 -0.421447 -0.131159 -0.167874 
24 1 0.495588 0.0537376 0.047587 2.53835 -3.29908 1.17665 0.0831089 0.256552 
19 1 0.439309 0.0127302 0.049817 0.449367 -3.29222 0.258746 -0.0620345 0.0547905 
461 1 0.5122 0.0984217 0.0964431 0.426868 -3.34273 -0.254285 0.20041 -0.247226 
21 1 0.496892 0.00860073 1.00182 0.71265 -3.28397 0.136946 0.121545 0.602011 
28 1 0.621548 0.038563 0.0548175 4.53722 -3.28574 0.113671 0.693981 -0.136586 
25 1 0.605757 1.00103 0.0070019 2.3252 -3.30463 0.804387 -0.289002 -0.256451 
23 1 0.556696 0.0046121 0.0553099 1.3014 -3.28335 -0.418889 0.0682432 -0.376975 
422 1 0.563178 0.0518873 0.0962555 1.20129 -3.28359 0.210513 -0.406784 0.0959055 
465 1 0.624756 0.0942109 0.0931787 1.43528 -3.31655 0.049361 -0.535548 0.275772 
32 1 0.720023 0.0362983 0.0485473 8.25565 -3.25781 0.606207 -0.554899 -0.472918 
67 1 0.67759 0.0853296 0.0443896 8.03045 -3.25481 -0.596126 0.696569 0.275389 
27 1 0.666221 0.987489 0.0547284 2.59504 -3.28864 0.107303 0.316763 -0.076885 
469 1 0.732611 0.0865834 0.0912478 7.1097 -3.26519 -0.154476 0.013733 -0.013274 
429 1 0.727147 0.986833 0.104584 2.78799 -3.26632 0.194905 -0.340527 -0.830914 
26 1 0.675831 0.0493948 0.99456 11.6426 -3.19658 0.212473 -0.624553 0.493708 
36 1 0.800215 0.0453815 0.0250061 7.44162 -3.34247 0.0333403 -0.00660463 0.22082 
35 1 0.850686 0.992822 0.0293888 6.24794 -3.30566 -0.314956 0.649574 0.123107 
434 1 0.858921 0.0456128 0.074406 8.5053 -3.2794 -0.200918 -0.326065 0.180146 
401 1 1.00001 0.993113 0.0781426 7.55343 -3.21411 -0.856215 -0.434321 0.952878 
40 1 0.908326 0.0437483 0.025855 1.98833 -3.193 -0.11211 0.00837683 0.234569 
39 1 0.952122 0.997392 0.0257334 3.02398 -3.19347 0.530749 -0.895466 0.408698 
79 1 0.951791 0.0951792 0.0346192 5.41474 -3.29801 -0.326052 0.0191409 0.462538 
437 1 0.905417 0.995385 0.0772799 7.45048 -3.35143 -0.116335 0.0259256 0.361575 
477 1 0.89823 0.0979889 0.0842501 4.59746 -3.31383 -0.39214 0.0460983 0.386033 
438 1 0.952575 0.0473364 0.0825998 5.18335 -3.2892 -0.658904 -0.140554 0.0878031 
43 1 0.0162141 0.125154 0.0485932 3.81567 -3.22794 0.405647 -0.104199 -0.0699179 
48 1 0.0679991 0.172915 0.0554752 1.49944 -3.30079 0.122361 0.131983 -0.563072 
45 1 0.0720253 0.12036 0.99884 6.16615 -3.29854 0.348758 0.308271 0.410334 
42 1 0.0172722 0.165213 1.00029 7.9962 -3.2711 0.335432 0.372383 -0.0529924 
47 1 0.121425 0.126459 0.0504078 0.717343 -3.35587 0.105707 -0.141853 -0.182345 
52 1 0.180362 0.171947 0.0496799 0.473919 -3.34763 0.141006 -0.32272 -0.063211 
49 1 0.180946 0.123319 0.00385042 1.03739 -3.26477 -0.634396 -0.10693 -0.138313 
51 1 0.230366 0.119721 0.048442 0.492288 -3.31537 0.335948 0.199056 0.399334 
50 1 0.235328 0.166709 0.00144467 0.481806 -3.32392 -0.0363819 0.43733 0.195412 
46 1 0.127604 0.170981 0.00183023 0.614147 -3.30666 -0.0886793 -0.125752 0.59085 
55 1 0.339318 0.117206 0.0485985 0.687467 -3.31082 -0.0122629 -0.408791 0.486138 
56 1 0.28786 0.167033 0.0518442 0.997288 -3.30589 -0.0176634 -0.443883 -0.12587 
95 1 0.346442 0.202862 0.0500112 1.49719 -3.30289 0.472516 0.744491 0.203389 
453 1 0.285278 0.121263 0.0963141 0.958083 -3.38282 0.042531 -0.317886 0.1458 
450 1 0.236524 0.172124 0.100321 2.01097 -3.23302 0.26537 -1.03896 -0.5816 
454 1 0.350348 0.15975 0.101438 1.42705 -3.30676 -0.477419 -0.000599762 -0.356314 
493 1 0.297909 0.210993 0.100652 0.941259 -3.37387 -0.0972012 0.0767824 0.00207829 
59 1 0.45407 0.107227 0.0485343 0.497209 -3.3096 -0.0162296 -0.00705489 0.422102 
60 1 0.402842 0.155049 0.0502832 0.297231 -3.31685 0.0972106 0.285257 0.13011 
97 1 0.405184 0.203567 1.00398 0.532241 -3.29929 0.262499 -0.209311 -0.247382 
99 1 0.463888 0.19745 0.0496156 0.274726 -3.3554 -0.0104399 -0.0647476 -0.089403 
457 1 0.395507 0.10916 0.0936081 1.04293 -3.30876 0.464244 0.253361 0.55443 
458 1 0.463265 0.149331 0.0977068 0.642178 -3.35966 -0.143155 0.00358486 -0.288162 
63 1 0.567235 0.0947629 0.0489071 0.952417 -3.317 -0.0980833 0.0810515 -0.155869 
64 1 0.518252 0.146478 0.0468098 0.679063 -3.30213 -0.162849 0.334085 0.716162 
68 1 0.62669 0.142511 0.0480057 5.63055 -3.33315 0.0936993 -0.27038 -0.241506 
462 1 0.572718 0.14283 0.0958749 0.250614 -3.34232 -0.041733 0.173829 0.0366262 
501 1 0.52002 0.193246 0.0967776 0.862522 -3.33734 0.331786 -0.240992 -0.498449 
103 1 0.578361 0.191167 0.0455669 7.01543 -3.32342 -0.100813 0.260971 0.487641 
505 1 0.636691 0.191128 0.0945765 6.88591 -3.29326 0.353929 -0.487312 -0.799036 
71 1 0.75124 0.0958804 0.0261704 7.36616 -3.32731 0.194122 -0.108233 -0.224417 
72 1 0.703941 0.147371 0.0289594 8.56505 -3.29649 0.340326 0.0769158 -0.0783943 
107 1 0.665249 0.201467 0.0310314 5.72402 -3.29365 -0.368694 -0.117247 0.032701 
509 1 0.721868 0.193546 0.0768282 9.96746 -3.31045 -0.571745 0.299888 0.22719 
466 1 0.682576 0.135451 0.0927844 6.46778 -3.26673 0.0227671 0.234224 -0.253081 
470 1 0.765402 0.144132 0.0714443 11.3542 -3.28895 -0.0736793 -0.167804 0.553184 
75 1 0.862454 0.0906259 0.021433 5.97137 -3.25346 -0.179911 -0.045173 0.101655 
76 1 0.81648 0.13814 0.0255398 7.1497 -3.26439 0.29013 -0.00877179 -0.446956 
513 1 0.796883 0.203999 0.0873459 1.05106 -3.26344 -0.117207 0.0932275 0.28058 
115 1 0.847939 0.19759 0.0396982 2.37208 -3.28002 0.266083 0.270271 0.267998 
473 1 0.814133 0.0954581 0.0756276 8.87129 -3.28832 -0.0302861 0.277065 0.11714 
474 1 0.847197 0.156311 0.0870706 1.57674 -3.25596 -0.001989 -0.579526 0.141487 
44 1 0.969318 0.172112 0.0500656 6.81984 -3.20456 -0.375956 0.0638106 -0.578186 
80 1 0.895467 0.143526 0.0382288 6.6097 -3.3183 0.29076 0.357798 -0.032812 
478 1 0.92054 0.173568 0.0953641 4.4559 -3.24438 -0.53871 0.335826 0.3867 
83 1 0.01566 0.220714 0.0523074 1.23401 -3.34584 -0.0852955 0.46433 0.174639 
88 1 0.0765657 0.265846 0.0538925 0.337085 -3.27622 0.133771 0.0230652 0.0192982 
85 1 0.0704794 0.216182 0.00798092 1.3777 -3.339 -0.0933218 0.195557 -0.330408 
87 1 0.12788 0.218616 0.0517686 0.487993 -3.33595 -0.0270841 -0.248727 0.283477 
91 1 0.241163 0.215082 0.0489555 1.0003 -3.33744 -0.206067 0.113124 0.25007 
92 1 0.182433 0.264872 0.0531635 1.53941 -3.34446 0.298853 -0.284403 0.0438311 
86 1 0.129271 0.262192 0.00643893 0.758425 -3.30676 0.00955899 0.425887 -0.0892562 
489 1 0.183214 0.211101 0.0984021 1.42333 -3.25784 -0.646239 0.697116 0.157716 
490 1 0.235049 0.255873 0.101784 3.09987 -3.31855 0.858527 -0.237361 -0.180847 
486 1 0.131157 0.264996 0.1041 0.476676 -3.33636 0.0814735 -0.141107 -0.370367 
129 1 0.191691 0.309183 0.00643975 0.391455 -3.32471 -0.223742 -0.0257962 0.490238 
90 1 0.243922 0.261155 0.00344798 0.328163 -3.33703 -0.201995 0.0122247 0.123452 
96 1 0.298628 0.257421 0.0513447 0.641217 -3.36795 0.257755 -0.456613 -0.0710459 
494 1 0.359 0.253613 0.0982465 0.874403 -3.32691 -0.463493 -0.29158 -0.36458 
100 1 0.40728 0.248214 0.0467032 0.44628 -3.31312 0.0839097 0.212741 0.18636 
139 1 0.469326 0.29349 0.0412981 6.64636 -3.31027 0.315996 0.0472212 0.651353 
537 1 0.412063 0.298325 0.0910813 1.14441 -3.31958 0.643259 -0.130951 -0.114407 
104 1 0.523266 0.242213 0.0468938 6.29679 -3.34616 0.0690093 -0.222794 -0.0718761 
143 1 0.562831 0.298124 0.0323418 6.14145 -3.32406 -0.20591 -0.12642 0.173862 
108 1 0.611961 0.249131 0.0300097 6.26533 -3.31318 0.0174974 -0.0573726 0.119916 
502 1 0.583229 0.241367 0.0889821 6.23149 -3.27936 -0.0900299 -0.160113 -0.154264 
545 1 0.620802 0.298676 0.0831054 7.0546 -3.23372 0.254578 -0.337054 -0.275654 
112 1 0.725251 0.239495 0.0238189 6.75085 -3.32673 -0.177144 0.219399 0.240359 
147 1 0.670504 0.294592 0.0310927 6.84457 -3.28045 0.309103 -0.236347 -0.125161 
506 1 0.670753 0.249999 0.0771817 10.0113 -3.30715 -0.351355 -0.420067 -0.0360773 
549 1 0.695922 0.309757 0.0923857 1.07778 -3.26267 0.181377 0.149232 0.003881 
111 1 0.773781 0.189135 0.0255609 7.55964 -3.27193 -0.496211 0.259602 -0.314228 
151 1 0.747383 0.303397 0.0448311 1.2443 -3.29627 0.0845367 -0.0393684 -0.365932 
116 1 0.797905 0.249904 0.0438514 2.13343 -3.2866 -0.0990083 0.25187 -0.213515 
510 1 0.742039 0.255851 0.0873351 2.41404 -3.28826 0.629011 0.062398 0.449641 
81 1 0.96819 0.213718 1.00039 6.55283 -3.25138 0.332961 0.729336 0.3734 
481 1 0.965848 0.227527 0.108465 6.00545 -3.29498 -0.381203 -0.220005 -0.777479 
84 1 0.964974 0.274516 0.0535248 6.13486 -3.31806 0.538285 -0.227103 0.262912 
119 1 0.921143 0.223573 0.0529248 6.95519 -3.34255 -0.084002 0.0427954 -0.174446 
120 1 0.868725 0.274501 0.0545437 6.31283 -3.25106 0.356729 -0.151224 -0.0395635 
118 1 0.920523 0.269594 0.00354088 6.53446 -3.30207 0.18137 0.0712144 -0.0288357 
123 1 0.028632 0.317181 0.0566628 0.550967 -3.32396 -0.347997 0.0517723 0.0117916 
125 1 0.0795263 0.312216 0.0129771 1.73909 -3.29032 0.0768173 0.134081 -0.873284 
128 1 0.0850944 0.361585 0.0531737 0.917021 -3.2948 0.194959 0.0602595 0.586855 
522 1 0.0314894 0.363117 0.105424 0.509601 -3.35262 0.184306 0.147839 -0.195588 
127 1 0.135583 0.315249 0.0587141 1.49673 -3.3165 0.199136 -0.428257 -0.458819 
132 1 0.199684 0.356329 0.0545179 0.514745 -3.38602 -0.262522 -0.134521 0.00573508 
529 1 0.194821 0.307537 0.101287 0.464597 -3.26938 -0.200943 0.602083 0.0417687 
526 1 0.1416 0.360402 0.100883 0.478742 -3.30408 0.458479 -0.272729 0.29783 
130 1 0.250446 0.354859 0.00714057 0.378718 -3.34324 0.244929 0.0269685 0.150028 
135 1 0.355443 0.300491 0.0479646 0.464159 -3.31693 0.292593 -0.275711 -0.151794 
133 1 0.297621 0.305741 0.00323209 0.844591 -3.29631 0.323328 -0.0848071 0.258932 
131 1 0.247306 0.302262 0.0551332 1.38541 -3.26989 -0.446202 0.424659 -0.482799 
136 1 0.306843 0.347553 0.0547649 1.441 -3.1987 -0.105631 0.570568 -1.40557 
175 1 0.368104 0.394263 0.0440803 1.89883 -3.29721 -0.370069 0.238391 0.761429 
573 1 0.316021 0.398995 0.0971134 0.569426 -3.313 -0.117722 0.0456489 0.0347559 
530 1 0.260511 0.353796 0.0987941 1.4407 -3.27772 -1.05958 0.115785 0.678907 
134 1 0.360156 0.348295 0.0033096 1.607 -3.3211 -0.252596 -0.263707 -0.328437 
140 1 0.419689 0.346733 0.0441896 2.41627 -3.32727 -0.161968 -0.306631 0.454473 
144 1 0.512403 0.347538 0.038491 6.28862 -3.30095 0.0727677 -0.274413 -0.570896 
148 1 0.626784 0.344665 0.0365428 8.29066 -3.29391 -0.112138 -0.0110275 -0.233966 
542 1 0.568585 0.340365 0.084728 8.06143 -3.26012 0.0883975 0.671302 -0.124676 
183 1 0.57535 0.388989 0.0311752 7.59792 -3.29547 -0.198999 0.328073 0.526545 
585 1 0.596159 0.408689 0.0981378 0.679043 -3.31415 0.239772 0.0435859 -0.0616318 
581 1 0.523643 0.394539 0.0829818 7.66247 -3.32106 -0.00184825 -0.311548 0.459803 
152 1 0.705009 0.358236 0.0503119 2.13475 -3.34081 -0.373749 0.00811862 -0.19628 
187 1 0.648424 0.409708 0.0473125 0.426928 -3.33886 -0.115742 -0.194137 0.18577 
546 1 0.64797 0.360721 0.0954223 0.810809 -3.31844 -0.0875864 0.279692 0.228848 
155 1 0.822263 0.325679 0.0532303 5.38467 -3.20873 -0.375391 -0.533814 0.174331 
156 1 0.776527 0.376138 0.0588369 5.74429 -3.29357 -0.310838 0.236198 -0.193222 
554 1 0.813291 0.377507 0.112774 6.01188 -3.31792 0.260115 0.0731617 -0.220258 
154 1 0.825697 0.370658 0.00961098 5.4841 -3.24972 -0.447329 0.222176 -0.522319 
159 1 0.9175 0.323762 0.0549061 1.16324 -3.25087 0.255189 -0.159506 0.514287 
121 1 0.973269 0.321072 0.00671806 1.02875 -3.32934 -0.100648 -0.0875916 0.466347 
124 1 0.974599 0.366202 0.0556992 0.924661 -3.28439 0.76094 0.0369222 -0.108561 
160 1 0.869503 0.371986 0.0598651 1.43385 -3.28641 0.264844 0.599874 0.450809 
157 1 0.871674 0.319944 0.00826854 6.20294 -3.2434 0.0323234 -0.0880092 -0.775792 
557 1 0.865812 0.327064 0.107055 1.46302 -3.35409 -0.119453 0.0279986 0.045726 
558 1 0.92923 0.367949 0.103832 0.922137 -3.31924 -0.544031 0.243919 0.436733 
158 1 0.921411 0.372229 0.0115918 1.43529 -3.31436 -0.12716 -0.00106568 -0.207797 
163 1 0.0373874 0.408714 0.0600148 0.807084 -3.32465 0.19996 0.286251 0.0191843 
165 1 0.0898861 0.409349 0.00782756 0.356292 -3.28388 0.313705 -0.0660959 0.504669 
168 1 0.0984568 0.455362 0.0597274 0.254746 -3.33372 -0.284706 0.0792072 -0.469351 
162 1 0.0418323 0.460134 0.0142692 0.512288 -3.33816 0.169153 -0.222846 -0.360558 
562 1 0.0498743 0.458893 0.109765 0.719087 -3.34193 -0.28988 0.0181587 -0.254515 
167 1 0.143793 0.406479 0.0563019 0.425717 -3.29969 0.331242 -0.282429 -0.438862 
171 1 0.257602 0.402849 0.053745 0.415097 -3.37083 0.039568 -0.176777 -0.182143 
172 1 0.204826 0.4507 0.0550828 0.252057 -3.3663 0.124639 -0.109189 -0.111061 
166 1 0.151163 0.450391 0.00827247 0.484493 -3.36761 -0.216504 0.491514 0.011148 
169 1 0.198121 0.402981 0.00672139 0.242848 -3.32982 0.118513 -0.0160105 0.19957 
173 1 0.309733 0.39891 0.00334692 0.742314 -3.29712 -0.445964 -0.220532 0.427849 
176 1 0.314912 0.449004 0.0515806 1.03561 -3.34811 -0.158424 -0.265224 -0.269641 
170 1 0.256516 0.447184 0.00469573 0.883311 -3.3289 -0.0962742 0.0641137 0.242444 
174 1 0.356928 0.447049 0.998232 0.735825 -3.3126 0.270914 0.177618 -0.102006 
213 1 0.304219 0.495146 0.999353 0.792561 -3.31168 0.141631 0.343648 0.279765 
179 1 0.463229 0.396345 0.0384281 1.46142 -3.26207 0.188739 -0.110045 -0.15977 
180 1 0.416217 0.44573 0.0397011 1.03996 -3.28129 -0.0908693 0.0264037 -0.000527673 
578 1 0.473265 0.440749 0.0857954 6.84758 -3.27763 -0.111622 0.387182 0.225216 
219 1 0.475576 0.485809 0.0353394 6.52952 -3.2647 -0.58581 0.606563 0.466742 
577 1 0.422977 0.396148 0.0926874 1.14231 -3.26759 0.148126 -0.823531 0.0711349 
178 1 0.46961 0.443284 0.990525 0.477487 -3.30884 -0.226809 -0.277433 -0.302008 
217 1 0.415718 0.49059 0.991798 0.388895 -3.30439 -0.0933356 0.296957 0.205182 
621 1 0.49935 0.502521 0.101288 6.74226 -3.17391 -0.880351 0.479662 0.00146424 
184 1 0.523313 0.438604 0.0368706 7.11698 -3.27723 0.545847 0.0643878 -0.269411 
188 1 0.597324 0.457568 0.0492689 0.248948 -3.344 -0.227756 -0.0103345 0.292153 
582 1 0.544538 0.458331 0.100356 0.832259 -3.21187 0.537566 -0.570898 -0.150826 
223 1 0.541376 0.508887 0.049452 1.71391 -3.21191 0.93767 -0.549427 0.000465765 
191 1 0.721209 0.424891 0.0605701 6.69923 -3.31948 0.0403516 -0.00996681 -0.238344 
192 1 0.66917 0.476955 0.0630923 7.47745 -3.37021 0.0272514 -0.163786 0.0721291 
190 1 0.725789 0.472031 0.013585 6.28207 -3.29369 -0.441945 -0.241451 0.477125 
195 1 0.825602 0.425422 0.0663056 1.95091 -3.26417 -0.511462 -0.23664 -0.0487206 
193 1 0.774777 0.420485 0.00974593 5.69793 -3.31214 0.216059 0.182036 0.583192 
196 1 0.774886 0.471714 0.0669711 1.0703 -3.25791 -0.155809 0.344309 -0.610502 
594 1 0.82641 0.472512 0.114291 0.774532 -3.29324 0.0127009 -0.264368 -0.286284 
194 1 0.826834 0.472546 0.019042 1.92274 -3.30845 -0.414375 -0.125771 -0.541509 
197 1 0.868501 0.422729 0.0158364 6.2858 -3.23827 0.490003 -0.285275 -0.287422 
164 1 0.99572 0.463663 0.0631163 1.59521 -3.31617 -0.663833 -0.429314 -0.0870121 
161 1 0.985113 0.417071 0.0157406 1.37024 -3.31375 -0.0919094 0.023133 -0.659072 
199 1 0.929903 0.419965 0.0567501 1.3054 -3.29229 -0.0887282 -0.251988 0.657859 
200 1 0.880712 0.46863 0.0651171 0.505239 -3.33084 0.212751 0.114935 0.0788238 
598 1 0.9385 0.462047 0.111308 0.79548 -3.33938 -0.291134 0.462618 -0.488661 
637 1 0.886392 0.514708 0.111635 0.386781 -3.34857 0.29469 -0.346827 0.00378951 
198 1 0.929343 0.464469 0.0136735 0.789376 -3.32723 0.519262 0.204903 -0.10981 
205 1 0.103976 0.503379 0.00918582 1.02284 -3.2705 -0.22448 -0.835413 0.184957 
203 1 0.053096 0.506024 0.0594882 0.775433 -3.29611 -0.1234 -0.195408 0.406754 
208 1 0.108871 0.547678 0.0635407 0.367284 -3.29663 0.0379159 0.3698 -0.355494 
602 1 0.054775 0.552838 0.113081 0.671266 -3.28906 -0.0043979 -0.366012 -0.083696 
243 1 0.061373 0.598894 0.0693827 0.993687 -3.28904 -0.289132 -0.144542 -0.537904 
605 1 0.109392 0.503383 0.105807 0.981618 -3.27044 -0.763887 -0.151994 0.512162 
202 1 0.054423 0.549778 0.0156474 0.46832 -3.29918 -0.305163 0.415359 -0.0183321 
207 1 0.157693 0.499954 0.0584043 0.371124 -3.31515 0.182012 -0.107946 -0.328998 
212 1 0.214825 0.544401 0.0522304 6.48898 -3.27989 0.0801564 0.10424 0.602948 
606 1 0.164494 0.543989 0.112138 1.15194 -3.24124 0.478659 -0.290154 -0.859522 
206 1 0.156672 0.544794 0.0107076 6.11888 -3.24582 0.296116 0.302146 0.00884827 
249 1 0.187495 0.599447 0.995769 9.02252 -3.296 0.707923 0.331021 0.343538 
215 1 0.366059 0.497204 0.0442863 1.3502 -3.28071 -0.357292 -0.290516 -0.07185 
211 1 0.261748 0.496078 0.0530928 0.904324 -3.29852 0.340297 -0.095661 0.0309724 
216 1 0.308072 0.550816 0.0461663 3.46037 -3.31721 -0.135877 -0.103732 0.186235 
255 1 0.372864 0.587977 0.0450633 8.27218 -3.30956 -0.565368 0.07509 -0.189955 
614 1 0.363215 0.543924 0.0919863 7.85397 -3.27323 0.447129 0.28625 -0.144193 
214 1 0.355947 0.542179 0.995077 1.8328 -3.3034 0.399693 0.143052 0.116586 
220 1 0.421258 0.536501 0.0398822 7.84884 -3.33636 0.286532 0.243081 0.0412802 
618 1 0.447092 0.548555 0.104364 7.5821 -3.31971 -0.303698 0.00955779 0.0393841 
259 1 0.451553 0.598379 0.0595358 6.70335 -3.17111 -0.0590136 -0.0271938 -0.595677 
657 1 0.400709 0.60071 0.103743 6.79742 -3.22976 -0.21016 -0.413787 0.602586 
218 1 0.474856 0.536375 0.990336 7.51571 -3.36579 -0.22387 0.148731 0.198568 
257 1 0.421373 0.586524 0.995018 7.07828 -3.30447 0.212225 -0.260678 -0.11556 
224 1 0.495768 0.55269 0.0581173 3.56941 -3.16506 0.0987157 -0.258955 -0.574093 
228 1 0.563648 0.579125 0.0633597 5.247 -3.3117 0.579234 -0.426403 -0.328796 
227 1 0.613331 0.523865 0.062839 7.96019 -3.34646 0.100335 0.192574 -0.00681009 
231 1 0.727489 0.523191 0.0645237 0.488417 -3.24049 -0.418193 -0.038493 -0.0663911 
232 1 0.676615 0.571732 0.0628318 0.254243 -3.31049 -0.204392 -0.119286 -0.0446604 
229 1 0.677048 0.522618 0.0178168 7.76099 -3.35192 -0.371699 0.147368 -0.189718 
226 1 0.62191 0.570655 0.0146992 7.08061 -3.37962 0.05759 -0.118596 0.113969 
633 1 0.777059 0.52263 0.109912 0.752722 -3.27724 0.227178 -0.047522 0.811676 
235 1 0.828505 0.517727 0.0659576 0.545057 -3.30872 0.342912 0.108445 -0.476712 
236 1 0.77993 0.568434 0.0634426 0.593214 -3.24007 0.690685 -0.293115 0.400305 
275 1 0.839739 0.60701 0.0610942 1.22368 -3.32782 0.433656 0.238405 0.581697 
233 1 0.774082 0.517864 0.0157925 0.678065 -3.27399 0.274978 0.201814 -0.022944 
239 1 0.940353 0.511859 0.0614272 0.604751 -3.32347 -0.0631674 -0.429901 0.382867 
237 1 0.883737 0.51246 0.0136231 0.726607 -3.30027 -0.238375 0.350019 0.188402 
204 1 0.00203369 0.553119 0.0682712 0.788247 -3.31629 -0.0205216 0.51657 -0.696889 
240 1 0.889144 0.557344 0.0634029 0.474766 -3.35477 0.0654225 0.296044 -0.217003 
277 1 0.895876 0.603979 0.0157781 0.440601 -3.32272 0.209044 -0.26348 0.0852426 
601 1 0.996726 0.506586 0.107294 0.883891 -3.30111 -0.0358759 -0.00447278 0.647586 
238 1 0.949092 0.555881 0.0167509 0.709536 -3.3101 -0.440124 0.771236 -0.00749149 
241 1 0.00931048 0.602513 0.021672 1.49658 -3.38155 -0.19762 -0.298127 -0.309661 
248 1 0.125297 0.639177 0.0642935 6.19781 -3.30209 -0.521566 0.3646 -0.226088 
641 1 0.00301478 0.600268 0.120796 2.51314 -3.27274 0.0929279 -0.00076402 -0.845632 
642 1 0.0673061 0.642586 0.1137 0.323541 -3.35023 0.188713 0.0461056 -0.103009 
245 1 0.109316 0.594459 0.0149217 6.85102 -3.28308 0.480518 -0.138808 0.164036 
242 1 0.0700333 0.644563 0.016773 7.81776 -3.30401 -0.249194 0.259545 -0.272424 
247 1 0.169717 0.592436 0.0644095 7.3951 -3.26531 -0.137971 -0.336142 -0.662214 
252 1 0.198749 0.651758 0.0405687 6.20792 -3.31972 0.266899 -0.0885208 0.134049 
287 1 0.146615 0.700415 0.0412255 7.2 -3.31865 -0.00501932 0.144379 0.0355712 
289 1 0.204909 0.700604 0.99561 1.15455 -3.32042 0.0816172 -0.19534 -0.51373 
246 1 0.148439 0.655585 0.994169 7.91511 -3.30203 -0.55159 -0.0388377 -0.158878 
251 1 0.249839 0.601424 0.0420503 7.54137 -3.31379 -0.0352039 -0.159505 -0.402121 
256 1 0.315083 0.641709 0.0448373 5.64002 -3.25517 -0.175204 -0.401089 -0.730425 
291 1 0.259882 0.698046 0.0404368 1.78391 -3.28106 -0.306066 -0.621125 0.0990204 
693 1 0.300229 0.695741 0.0974623 1.26633 -3.27389 -0.216823 -0.218958 0.109605 
254 1 0.37453 0.634397 0.995741 7.35125 -3.31286 -0.349272 0.542765 0.101807 
250 1 0.260838 0.650687 0.994524 1.4532 -3.25106 -0.552446 -0.502364 0.443196 
260 1 0.402624 0.644501 0.0582565 8.8215 -3.1257 0.93869 -0.0699059 -1.10537 
297 1 0.406781 0.694968 0.00448451 7.03768 -3.30671 0.0485258 -0.201554 -0.331305 
264 1 0.470944 0.681581 0.0568223 1.85385 -3.31008 -0.386892 -0.308663 -0.0882461 
258 1 0.454973 0.646597 0.00592245 5.51806 -3.31123 0.0959217 -0.0998383 -0.158392 
263 1 0.517849 0.627849 0.0574408 2.46936 -3.2816 -0.182586 0.442282 0.255854 
268 1 0.574994 0.671487 0.0592094 0.311388 -3.34469 0.0467503 0.283009 -0.00163923 
265 1 0.572606 0.619355 0.0122621 6.97016 -3.34185 -0.0145279 0.250102 0.00389068 
262 1 0.526157 0.673814 0.00883087 5.93432 -3.28225 -0.150027 0.0592108 0.54011 
267 1 0.628861 0.621081 0.0612362 0.493565 -3.3501 -0.420602 0.0797632 -0.0316501 
271 1 0.732341 0.613891 0.0632343 0.848533 -3.28114 0.170802 0.756054 0.320288 
272 1 0.685998 0.666784 0.0632251 0.510874 -3.33068 -0.0989419 0.0581688 -0.236106 
270 1 0.736406 0.666279 0.0165335 1.7035 -3.35482 0.40376 -0.401603 -0.346959 
311 1 0.74996 0.708069 0.0611592 1.45464 -3.30608 -0.662403 0.188478 0.376071 
269 1 0.68251 0.619501 0.016974 0.444656 -3.29876 -0.209757 0.0418423 -0.386005 
266 1 0.62804 0.669588 0.0139686 0.678586 -3.3045 0.268936 -0.304288 0.0544703 
276 1 0.79535 0.659346 0.0670556 0.737513 -3.326 -0.0439284 -0.34382 -0.230729 
315 1 0.85057 0.700868 0.0699814 2.07244 -3.30299 0.493255 -0.279217 -0.528399 
273 1 0.788148 0.617321 0.0168889 1.74628 -3.31733 -0.194235 0.0211691 -0.331588 
274 1 0.852865 0.652986 0.0149834 1.16495 -3.31353 -0.425594 0.531102 0.101192 
244 1 0.0088032 0.644244 0.0696834 1.44198 -3.2636 0.647863 -0.14817 -0.440896 
279 1 0.948454 0.600998 0.065872 0.567729 -3.33749 0.39855 -0.0600978 -0.24076 
280 1 0.901103 0.650997 0.0665658 0.461521 -3.31948 -0.238593 0.24677 -0.14699 
319 1 0.967427 0.693454 0.0646373 1.12355 -3.2939 -0.52564 0.628005 -0.108051 
278 1 0.953402 0.650225 0.0204548 1.24984 -3.2869 0.332128 -0.380836 -0.39078 
281 1 0.0195038 0.692575 0.0153744 7.52781 -3.31588 -0.0794915 -0.119289 -0.382449 
283 1 0.071343 0.689244 0.0618751 8.00174 -3.31445 0.317911 -0.126328 0.191774 
288 1 0.101413 0.754304 0.0375465 7.78673 -3.29859 -0.0434782 -0.243273 -0.011975 
282 1 0.0468105 0.754051 0.99288 7.60243 -3.29516 -0.142272 -0.298248 -0.300177 
725 1 0.0995065 0.797106 0.0873011 7.78185 -3.29679 0.200526 0.222689 -0.326617 
285 1 0.0970114 0.705974 0.990872 8.03493 -3.32359 -0.436443 -0.35586 0.178498 
321 1 0.992484 0.802887 0.987151 7.71597 -3.30378 0.00567955 0.242249 0.130757 
292 1 0.2088 0.748275 0.0380792 1.50672 -3.24628 -0.36136 -0.755059 -0.146135 
729 1 0.204562 0.794335 0.0894904 0.386391 -3.23611 -0.357142 0.082331 0.342774 
327 1 0.161337 0.794346 0.0335984 1.87098 -3.32679 -0.234685 0.38898 -0.0391328 
331 1 0.255835 0.79223 0.0464422 2.64704 -3.19368 0.557259 -0.0315584 -0.282696 
686 1 0.151639 0.748537 0.0858039 7.11584 -3.35312 -0.0647774 -0.0546289 0.310348 
295 1 0.356772 0.691191 0.0517757 2.44009 -3.22277 0.184852 0.636394 -0.073696 
690 1 0.25003 0.742888 0.0922522 1.09443 -3.27551 -0.205141 0.0533527 0.369807 
296 1 0.310258 0.738567 0.0500962 2.32481 -3.18943 -0.218812 0.676441 -0.352107 
293 1 0.322385 0.686431 0.993294 6.25736 -3.30172 0.189952 0.316768 0.222301 
294 1 0.354242 0.743512 0.000816964 6.76545 -3.31169 0.183028 0.145831 -0.218586 
299 1 0.418365 0.735797 0.0526269 1.40231 -3.23045 -0.638382 -0.898652 -0.116001 
300 1 0.368713 0.780175 0.055464 2.16379 -3.27519 -0.552042 0.268891 -0.458698 
304 1 0.475018 0.770964 0.052417 0.698452 -3.25176 0.596615 0.670947 0.0112974 
298 1 0.41978 0.779116 0.00446281 0.929031 -3.29195 -0.0145919 -0.525968 0.0570268 
301 1 0.475125 0.724032 0.00460099 5.50347 -3.31481 -0.342572 0.233067 0.49641 
303 1 0.524272 0.724596 0.0564915 0.413033 -3.31969 0.406028 -0.261287 -0.102581 
308 1 0.580368 0.767096 0.0586987 0.88418 -3.2987 0.485229 -0.350219 -0.3043 
302 1 0.529838 0.773629 0.00502723 1.668 -3.36903 0.221983 -0.492457 0.0871432 
305 1 0.582512 0.719942 0.0119138 0.468842 -3.33686 -0.42487 0.163194 -0.21272 
307 1 0.636415 0.717325 0.0557425 1.07087 -3.31667 -0.288327 0.00133167 0.948789 
309 1 0.688763 0.717898 0.0129847 1.75476 -3.23844 0.261135 -1.01801 0.271924 
312 1 0.693615 0.7623 0.0598675 0.571123 -3.3244 0.0689837 -0.496405 0.107028 
306 1 0.63778 0.765406 0.0122929 0.751874 -3.29109 -0.12132 -0.255821 -0.348795 
713 1 0.795946 0.702643 0.115967 1.31545 -3.3144 0.413614 0.116131 -0.147896 
316 1 0.80515 0.748369 0.0626201 0.939518 -3.29467 0.163922 0.695942 -0.0931314 
313 1 0.804306 0.702244 0.013026 1.48106 -3.34322 -0.388102 -0.0476039 0.149738 
710 1 0.750478 0.755095 0.111357 0.918812 -3.30373 -0.146612 -0.260404 -0.695073 
310 1 0.750861 0.754102 0.0147917 0.540601 -3.33528 0.138437 0.0964851 -0.0947844 
284 1 0.0290295 0.740135 0.058841 7.1959 -3.28134 -0.646834 0.166885 -0.391118 
320 1 0.911207 0.742731 0.0612841 0.712145 -3.3473 0.0474744 -0.136687 -0.178998 
359 1 0.973419 0.785442 0.0501809 6.29184 -3.28333 0.40297 0.511031 0.869595 
357 1 0.918156 0.785547 0.0080678 7.60163 -3.22252 0.042663 0.666452 0.0771738 
318 1 0.969427 0.740502 0.0107956 7.36132 -3.25387 0.170288 -0.399424 -0.164565 
323 1 0.0487527 0.802682 0.0332046 7.41728 -3.30338 0.0381943 -0.0435131 0.50243 
328 1 0.109819 0.843583 0.0331233 1.48311 -3.27641 -0.444963 -0.150066 0.0123505 
363 1 0.0583311 0.893311 0.0309965 1.61946 -3.28157 -0.211492 0.387576 0.289275 
765 1 0.101101 0.892915 0.0876275 1.44846 -3.30398 0.207254 0.187517 0.0909431 
365 1 0.111949 0.892876 0.984643 1.20414 -3.30041 0.458357 -0.221005 0.0101327 
722 1 0.0519703 0.848138 0.0847965 7.69052 -3.31522 0.143456 -0.324941 -0.0415602 
332 1 0.2118 0.843347 0.0431868 1.63624 -3.2228 -0.832696 -0.273066 0.160431 
371 1 0.220089 0.934331 0.0532167 1.64859 -3.28523 -0.173086 -0.255487 -0.470184 
726 1 0.151407 0.843691 0.0876345 1.34856 -3.31478 0.0153402 -0.161574 -0.0241381 
335 1 0.319217 0.83171 0.0501609 0.954302 -3.24308 -0.227179 0.0493311 0.371762 
336 1 0.266441 0.885185 0.0503987 0.710367 -3.28023 0.188784 -0.00189081 -0.0406976 
334 1 0.323521 0.878933 0.00805332 2.24746 -3.32094 -0.218386 0.145526 -0.513718 
375 1 0.324036 0.926938 0.0543179 0.641659 -3.35623 0.184108 0.0640977 0.0201475 
773 1 0.271247 0.930191 0.103474 1.2585 -3.31067 -0.0931184 -0.0952399 -0.563356 
339 1 0.425397 0.818753 0.0531499 1.8196 -3.26336 0.132934 0.702451 0.429967 
340 1 0.378098 0.877346 0.0529246 0.92025 -3.24439 -0.0823735 -0.259437 0.281244 
344 1 0.481263 0.867437 0.0564939 1.13165 -3.32151 0.526656 -0.0658441 -0.250717 
338 1 0.433055 0.871632 0.01021 0.971709 -3.26857 0.0516093 -0.0594324 -0.589036 
337 1 0.374724 0.831181 0.00995088 2.42296 -3.25693 -0.195127 -0.425555 -0.689581 
343 1 0.537898 0.816654 0.0555189 1.0954 -3.29379 -0.722809 0.263685 0.210353 
348 1 0.594142 0.857056 0.057131 0.701914 -3.3139 -0.096442 0.605216 -0.117794 
742 1 0.532202 0.867438 0.103675 2.32399 -3.28874 0.577122 -0.969426 -0.619781 
342 1 0.541238 0.861395 0.00362304 0.930132 -3.28663 -0.298779 0.846816 0.765119 
345 1 0.589921 0.815528 0.00862769 0.631598 -3.26296 0.065535 -0.455982 -0.251447 
347 1 0.640116 0.807892 0.0570292 0.654958 -3.27793 0.395464 0.234978 0.190381 
352 1 0.701609 0.849555 0.0585236 0.568026 -3.33413 0.159949 -0.0240793 -0.408727 
346 1 0.650945 0.858567 0.00724529 1.02785 -3.3328 0.0981191 -0.704324 0.142358 
349 1 0.698523 0.807226 0.00994811 0.607105 -3.37418 0.101216 -0.0446956 -0.0714468 
746 1 0.64895 0.852692 0.104434 0.298142 -3.37282 -0.14627 0.145308 0.411468 
355 1 0.866262 0.795857 0.0556463 0.564129 -3.35226 0.0812666 -0.134839 0.223143 
353 1 0.808344 0.799378 0.0117108 0.4541 -3.31025 -0.0680347 -0.00528006 0.370028 
351 1 0.753091 0.799999 0.06046 0.580032 -3.35117 0.325764 0.253734 -0.122828 
356 1 0.817544 0.845781 0.0566423 0.261568 -3.34324 0.0130374 -0.240638 -0.122668 
395 1 0.876883 0.888988 0.0517805 6.83977 -3.25824 -0.1016 -0.666684 -0.0267389 
354 1 0.877585 0.8419 0.00646182 7.33311 -3.31808 -0.664086 -0.180933 -0.124767 
754 1 0.877711 0.838786 0.104304 1.37622 -3.30055 -0.341321 -0.392274 -0.186181 
757 1 0.925232 0.786478 0.105341 1.61474 -3.21894 -0.561353 1.12733 -0.0518371 
324 1 0.00380236 0.85206 0.0330281 7.20847 -3.29644 -0.440239 0.0185018 0.136637 
360 1 0.932595 0.839 0.0496132 8.73355 -3.32876 -0.434593 -0.206025 0.419004 
3 1 0.0562891 0.988431 0.0388801 1.77701 -3.24509 0.623688 -0.136541 -0.287093 
368 1 0.109914 0.937066 0.0413207 1.4967 -3.28676 -0.501984 0.406357 0.197519 
762 1 0.049369 0.942759 0.087829 2.07984 -3.24919 0.842082 0.606415 -0.177748 
364 1 0.00168268 0.948131 0.0312889 1.69929 -3.31179 0.253543 -0.499974 -0.18092 