ITEM: TIMESTEP
14000
ITEM: NUMBER OF ATOMS
4000
ITEM: BOX BOUNDS pp pp pp
2.7704355897270152e+00 3.7729564410272410e+01
-2.9189516181601007e+00 4.3418951618159397e+01
-5.6194915865534367e-01 4.1061949158655750e+01
ITEM: ATOMS id type xs ys zs c_csym c_peratom fx fy fz 
405 1 0.0512402 0.0545116 0.094975 0.54561 -3.26502 0.0341131 0.25247 0.3707 
7 1 0.105921 0.0464094 0.0480202 0.216261 -3.28902 0.110994 0.327183 0.00618808 
3 1 0.038268 0.0137875 0.0478746 1.98857 -3.23572 0.0857354 -0.491279 0.269876 
6 1 0.110062 0.0914571 -0.00275979 0.59156 -3.34916 0.0300532 -0.0261777 0.234793 
2 1 0.0474603 0.0513321 1.0009 7.22098 -3.26748 -0.0653223 0.861613 0.0516676 
12 1 0.169031 0.0825887 0.0460439 0.48591 -3.35274 -0.214492 0.24247 0.0177894 
11 1 0.217274 0.0336917 0.0500422 0.178935 -3.34935 -0.0698198 -0.146635 -0.316024 
10 1 0.227763 0.0777813 0.00209144 0.414934 -3.3496 -0.490288 0.042315 -0.419485 
9 1 0.158346 0.0382146 -0.000486523 0.452783 -3.30325 0.207944 0.532115 -0.0881824 
16 1 0.280268 0.0705796 0.0507682 0.50964 -3.32941 0.662675 0.385163 0.0471845 
15 1 0.328273 0.0199915 0.0564229 1.65504 -3.268 0.3417 0.317135 -0.938367 
413 1 0.273987 0.0295795 0.0991135 0.729738 -3.23919 -0.225392 -0.336635 0.0483869 
14 1 0.335031 0.0687188 0.000607474 0.89588 -3.29168 0.29416 -0.320738 0.278068 
20 1 0.385772 0.0604681 0.0514346 1.72513 -3.34413 0.671319 -0.00420154 -0.0685318 
19 1 0.445063 0.0106892 0.0480221 1.23829 -3.30429 -0.27833 0.410143 0.709763 
418 1 0.451284 0.0553381 0.0977807 0.829106 -3.38098 -0.270206 -0.237968 0.0606477 
21 1 0.497663 0.00403274 1.00279 0.585208 -3.29026 0.389633 0.0532321 -0.786552 
17 1 0.382309 0.0153072 0.00276081 0.53274 -3.35892 -0.149925 0.367664 0.0620192 
24 1 0.514019 0.0515265 0.0488501 2.25726 -3.26698 -0.690018 -0.452046 0.359104 
28 1 0.616627 0.0355632 0.0523151 1.12504 -3.28026 0.275852 0.0285855 0.256793 
23 1 0.551132 0.998754 0.0479223 1.5738 -3.31794 0.440758 -0.23428 0.443545 
63 1 0.57864 0.0862027 0.0487582 1.4542 -3.22556 -0.393959 -0.0463715 0.583218 
61 1 0.516577 0.0917614 0.00157278 0.433155 -3.26393 -0.308111 -0.200113 -0.628443 
32 1 0.734529 0.0224009 0.0483954 0.725324 -3.31151 0.108675 -0.0654934 0.0344944 
67 1 0.69076 0.0719142 0.0530961 1.65243 -3.29919 -0.645209 0.0262243 -0.052078 
469 1 0.746115 0.0702696 0.104465 1.19564 -3.27521 -0.266844 -0.102214 -0.0403463 
426 1 0.680703 0.0287134 0.0995932 0.511311 -3.32334 -0.21172 0.257376 -0.0341436 
26 1 0.671563 0.0288995 0.00515198 2.15008 -3.27301 0.94689 -0.245926 -0.406401 
30 1 0.739458 0.0678166 0.000859208 0.670389 -3.33765 0.174709 -0.179147 0.0927574 
36 1 0.796561 0.0639236 0.0517216 1.36664 -3.33931 0.335953 -0.17913 -0.04607 
35 1 0.848392 0.0068916 0.0493073 0.928895 -3.25527 0.488012 0.691118 0.241137 
434 1 0.865952 0.0561815 0.103082 6.15536 -3.22675 -1.40048 -0.336749 -0.169067 
430 1 0.791365 0.0204435 0.0996366 0.987133 -3.32553 0.698254 -0.0387921 0.144735 
4 1 0.987536 0.0657081 0.0459682 1.46754 -3.32371 0.347511 -0.148736 0.368034 
40 1 0.914734 0.0425559 0.0464812 6.22971 -3.27306 -0.0720109 -0.300759 -0.330311 
437 1 0.912767 0.00671515 0.103831 6.4535 -3.31943 -0.454 0.152686 -0.161564 
8 1 0.0609574 0.0957374 0.0499028 1.73254 -3.32431 -0.654387 0.318575 -0.48625 
43 1 0.00283845 0.146848 0.0515126 0.744621 -3.31168 0.641841 -0.0500546 -0.315016 
45 1 0.0615567 0.143534 -0.00130451 0.836817 -3.2923 0.030231 -0.330331 0.615439 
47 1 0.116748 0.136156 0.0492535 0.5927 -3.32153 0.376684 -0.169901 -0.313901 
46 1 0.124306 0.179406 1.00131 0.322628 -3.26524 0.150468 -0.0820206 0.229152 
445 1 0.0626806 0.140619 0.0957678 0.520482 -3.30368 -0.250895 -0.113589 0.474215 
446 1 0.123833 0.175447 0.0982701 0.943829 -3.33225 0.345855 0.600144 0.102859 
52 1 0.18426 0.171585 0.0496297 0.692372 -3.3415 -0.349701 -0.013263 -0.13107 
51 1 0.233558 0.121578 0.0489033 0.234472 -3.31779 0.129903 0.134063 -0.273549 
450 1 0.235916 0.164441 0.0980023 0.806934 -3.3232 0.373436 0.183952 0.268533 
449 1 0.179031 0.125975 0.0931594 1.64341 -3.29324 -0.476917 0.13358 0.635908 
49 1 0.172367 0.128032 0.000334563 0.404675 -3.36322 0.386733 -0.198776 0.0383655 
55 1 0.345662 0.111413 0.055846 1.24939 -3.28471 -0.467309 -0.169051 -0.104606 
56 1 0.29447 0.163431 0.0481093 1.02832 -3.34555 -0.187035 -0.227658 0.464105 
453 1 0.290602 0.119199 0.0998447 0.942807 -3.35899 -0.414107 -0.264847 0.0492383 
454 1 0.350946 0.158581 0.10059 1.116 -3.30554 -0.375209 -0.388696 -0.0990614 
53 1 0.290303 0.11677 0.00334714 0.782708 -3.27397 -0.422334 0.102973 -0.0780483 
59 1 0.461343 0.0976577 0.0506188 0.780503 -3.33302 -0.658707 0.00421379 0.130541 
60 1 0.410268 0.146616 0.0528505 0.828954 -3.33651 0.190147 0.400567 0.057315 
457 1 0.400976 0.104695 0.100816 0.639213 -3.33016 0.193827 -0.294138 0.122114 
57 1 0.394527 0.108251 0.00527654 2.69431 -3.21177 0.74947 -1.11824 -0.569649 
58 1 0.464186 0.138215 1.00007 1.09125 -3.3412 -0.0911026 0.48958 0.32597 
64 1 0.526294 0.129402 0.0489495 1.64317 -3.2592 -0.391681 0.720829 0.421767 
103 1 0.584321 0.169573 0.0495061 0.413171 -3.31013 -0.00547539 0.406429 -0.0633678 
101 1 0.525284 0.178641 1.00272 0.690747 -3.33968 -0.0430351 -0.260598 0.0523926 
62 1 0.579259 0.126421 -0.000579943 0.421823 -3.32347 0.254065 0.259136 -0.218812 
68 1 0.638025 0.122776 0.0484537 0.416564 -3.30477 0.065077 -0.312262 0.182367 
505 1 0.64082 0.16739 0.0996409 0.216741 -3.29234 0.426855 -0.100008 0.20708 
72 1 0.694187 0.160463 0.0510909 0.725088 -3.25928 0.689542 -0.251857 -0.156024 
466 1 0.691594 0.115709 0.103888 0.717026 -3.33111 -0.0120951 0.366501 0.00154654 
66 1 0.641497 0.167184 0.00051648 0.579342 -3.31981 0.159707 -0.687845 -0.297796 
75 1 0.868926 0.0940791 0.0454441 5.99385 -3.15945 -0.969844 -0.381253 -1.06845 
473 1 0.809113 0.107559 0.103047 4.89815 -3.31849 -0.123883 0.0952859 -0.204697 
71 1 0.744929 0.112323 0.0535778 1.44544 -3.28769 0.50143 0.245683 -0.449159 
470 1 0.756511 0.156649 0.0990018 6.68039 -3.35227 0.136 0.105858 0.0809025 
76 1 0.809239 0.148852 0.0371278 9.56381 -3.23999 0.472939 -0.0970389 0.866517 
402 1 0.999515 0.101835 0.097637 0.761404 -3.31633 0.220886 0.170204 0.0441154 
79 1 0.939843 0.112771 0.0530333 6.35294 -3.13757 0.922479 -0.354172 -0.380512 
80 1 0.893171 0.155586 0.0513698 9.39752 -3.22996 -0.574382 0.952455 -0.00601138 
41 1 0.999754 0.106633 0.0001491 6.35559 -3.28134 -0.356889 -0.187275 0.643506 
78 1 0.945367 0.156045 0.00404385 6.22371 -3.27036 0.0767404 -0.375431 -0.435163 
48 1 0.0680944 0.185802 0.0504204 0.334774 -3.35961 -0.055165 0.165975 -0.287076 
42 1 0.00646787 0.189115 0.0025714 1.15729 -3.27049 0.885526 0.540629 -0.356783 
83 1 0.0150511 0.238209 0.0493571 1.25562 -3.3354 0.387139 -0.157895 0.21775 
88 1 0.0847581 0.268607 0.0480246 1.45898 -3.33752 -0.217514 0.292301 0.586532 
485 1 0.0710752 0.226523 0.100268 1.00297 -3.30806 0.81153 0.379496 -0.298381 
87 1 0.13812 0.221413 0.046726 2.08245 -3.29869 -0.877063 -0.0715237 0.768469 
91 1 0.241915 0.21186 0.0526321 0.934228 -3.25119 -0.264968 -0.486819 -0.718318 
92 1 0.193005 0.261275 0.0479831 0.747535 -3.26505 0.108392 0.16476 0.498047 
86 1 0.139138 0.269411 0.998916 0.774428 -3.28901 -0.0825587 -0.140343 0.136825 
489 1 0.183464 0.214695 0.103843 2.15656 -3.30723 0.0937703 0.0488221 -0.695953 
486 1 0.138752 0.263737 0.0991446 0.600024 -3.39099 -0.0609628 0.168829 0.000913901 
95 1 0.363486 0.201415 0.0527049 2.21753 -3.34673 -0.372711 -0.416243 -0.250892 
96 1 0.310486 0.247173 0.0485244 0.795534 -3.27189 -0.297529 -0.0505041 0.354163 
93 1 0.300506 0.205325 0.00270001 0.575166 -3.35328 0.0273893 -0.108141 -0.33141 
99 1 0.472842 0.183217 0.0554043 1.15534 -3.32692 -0.294138 -0.411407 -0.610738 
100 1 0.429313 0.233957 0.0509779 1.96508 -3.29312 -0.455053 -0.207002 -0.0456631 
139 1 0.487741 0.273353 0.048389 0.744388 -3.2995 -0.0197082 -0.184175 0.0664807 
104 1 0.531922 0.220914 0.0495236 0.680015 -3.34837 0.363089 0.170786 -0.0067708 
108 1 0.597137 0.263195 0.0515473 1.47846 -3.32824 -0.0334482 -0.377917 -0.351097 
502 1 0.591517 0.215769 0.095698 1.01119 -3.34211 -0.229426 -0.0462893 0.20637 
541 1 0.543373 0.263646 0.098936 0.450955 -3.29933 0.311802 -0.0927027 0.253856 
102 1 0.543837 0.265262 0.999684 0.5394 -3.33452 -0.0831447 -0.405469 0.156525 
107 1 0.65048 0.208206 0.049434 0.969874 -3.22819 -0.629613 0.265659 -0.0941168 
509 1 0.70383 0.205608 0.0979971 5.21232 -3.28984 0.111282 -0.178499 0.326608 
112 1 0.707082 0.247137 0.0416079 7.24801 -3.24217 0.499821 0.601386 0.0636405 
506 1 0.653747 0.25291 0.0956912 6.00909 -3.27077 -0.24167 0.492746 -0.0605109 
115 1 0.84418 0.204253 0.0538553 7.6679 -3.30308 -0.69238 0.338124 -0.271395 
111 1 0.757911 0.196271 0.0449815 7.45996 -3.27563 0.256277 0.162861 -0.409396 
116 1 0.789551 0.25679 0.0570067 8.76568 -3.28431 0.0177837 0.0174054 -1.10857 
114 1 0.850538 0.253245 1.00372 6.80209 -3.27375 -0.64599 0.193691 0.60073 
44 1 0.959741 0.197613 0.050588 0.919297 -3.25902 -0.753878 0.126466 0.336847 
81 1 0.959149 0.241605 0.001121 0.329663 -3.29255 0.133547 0.536161 0.207577 
119 1 0.905299 0.249011 0.0531894 0.560616 -3.29269 0.190401 0.159697 -0.121648 
117 1 0.898127 0.206875 1.00803 8.20514 -3.25422 -0.113988 -0.775279 -0.429149 
123 1 0.0358416 0.323536 0.0477876 0.799075 -3.33977 -0.529168 -0.275079 0.319669 
128 1 0.0972889 0.359256 0.0491295 0.330094 -3.32522 0.273794 0.144636 -0.291098 
122 1 0.0352775 0.367139 0.998476 1.42557 -3.30919 0.611935 0.0293384 0.202391 
482 1 0.0235301 0.281381 0.100806 0.773187 -3.36592 -0.126622 -0.23916 -0.505883 
522 1 0.0429231 0.365156 0.0971529 0.633277 -3.32257 -0.0419701 0.334269 0.130887 
525 1 0.0923204 0.316007 0.0984954 0.509382 -3.32638 -0.194815 -0.347936 -0.0959428 
129 1 0.200929 0.306079 1.00071 0.380578 -3.33736 0.267171 -0.188496 -0.0319791 
127 1 0.146459 0.309136 0.0500048 0.223715 -3.34107 -0.159938 0.318024 -0.072095 
132 1 0.212428 0.348804 0.0486152 0.29205 -3.35373 -0.374305 0.0152746 -0.134835 
529 1 0.202579 0.306101 0.0969628 0.831268 -3.37693 0.0657991 -0.541279 0.156412 
526 1 0.152335 0.354314 0.0995693 0.651597 -3.30548 0.211895 0.0210051 -0.484677 
135 1 0.370534 0.281823 0.0537953 1.91018 -3.26704 0.572868 0.514707 -0.472366 
133 1 0.318137 0.293957 1.00149 1.1196 -3.30946 -0.449024 -0.334973 -0.169217 
131 1 0.262217 0.295854 0.0508691 1.09553 -3.31502 -0.398474 0.386636 -0.126016 
136 1 0.322395 0.334043 0.0507357 0.821997 -3.34482 0.367917 0.203504 -0.307179 
533 1 0.314595 0.2911 0.100381 0.924024 -3.29151 0.36368 0.0839778 -0.296996 
140 1 0.439193 0.321648 0.0480382 0.490459 -3.35535 0.0213826 -0.301072 -0.0556374 
538 1 0.499621 0.309687 0.101663 1.71612 -3.24723 -0.686407 0.441013 -0.20673 
577 1 0.454791 0.36096 0.0994915 1.87265 -3.32306 -0.35954 -0.222563 0.05442 
144 1 0.504899 0.356821 0.046217 1.23655 -3.18884 -1.00586 -0.0484246 -0.102228 
143 1 0.548039 0.311398 0.0466621 0.727484 -3.23089 0.340249 -0.681425 0.120549 
545 1 0.605127 0.30735 0.100159 6.24041 -3.32373 -0.407274 -0.521297 -0.176916 
148 1 0.605041 0.35011 0.0434753 6.29002 -3.22841 0.548411 -0.10642 -0.240196 
542 1 0.551109 0.35203 0.0994795 4.35845 -3.27298 0.259641 0.303337 0.192255 
147 1 0.658298 0.29924 0.0406232 7.96796 -3.26044 0.425531 0.235167 0.58265 
151 1 0.737939 0.307766 0.0507262 7.37184 -3.31042 -0.190321 -0.512994 0.328593 
152 1 0.689274 0.355908 0.0509152 7.34979 -3.32649 -0.404121 0.0533503 0.0690816 
150 1 0.747693 0.348482 0.00413276 7.09142 -3.27076 -0.38489 0.286142 -0.614569 
553 1 0.748672 0.350184 0.0982858 0.425109 -3.31539 -0.0726156 0.0422752 0.134365 
120 1 0.854609 0.296093 0.0552934 0.767258 -3.35346 0.0958816 -0.118326 -0.470991 
153 1 0.797024 0.299677 0.00498171 7.45591 -3.30461 0.207798 0.0613722 0.112478 
155 1 0.801803 0.344157 0.0489915 0.398205 -3.24905 0.427939 0.305609 0.242332 
157 1 0.86099 0.341858 1.00191 0.363113 -3.31476 -0.0796711 0.167149 0.286662 
84 1 0.967761 0.288723 0.0509725 0.538182 -3.38054 0.234154 -0.346741 -0.161273 
159 1 0.917568 0.334521 0.0541547 0.985961 -3.29734 -0.064496 0.280336 -0.105166 
121 1 0.972613 0.332454 0.00283838 0.910354 -3.27716 0.438656 -0.647776 -0.168582 
163 1 0.0469761 0.409415 0.0492239 0.719825 -3.33459 -0.207222 0.180485 0.335119 
165 1 0.101629 0.407054 0.0052657 1.68101 -3.3278 0.423408 -0.21024 -0.682787 
168 1 0.108705 0.449646 0.0519225 1.30898 -3.28929 0.290332 0.329921 -0.686289 
162 1 0.0563198 0.458211 0.999413 0.834694 -3.32151 -0.270472 -0.30928 0.278815 
167 1 0.163642 0.400883 0.0483913 0.644064 -3.30419 -0.239452 -0.720957 -0.514268 
172 1 0.228589 0.434456 0.0453774 0.273726 -3.29025 0.111564 0.196001 0.500132 
569 1 0.217783 0.392416 0.0970158 0.44587 -3.31593 0.388195 -0.102708 -0.202478 
566 1 0.17095 0.440116 0.0929366 0.939879 -3.2691 0.236409 0.543344 0.653902 
171 1 0.27696 0.384532 0.0451233 0.507617 -3.32065 -0.0146384 -0.0362119 0.466016 
176 1 0.342892 0.420714 0.0507542 1.1719 -3.27326 -0.186262 0.198153 -0.216366 
573 1 0.335082 0.379574 0.0944476 0.964423 -3.33101 -0.0496895 -0.56169 0.65004 
570 1 0.286388 0.426564 0.0986501 0.367964 -3.37698 -0.0214589 0.178765 -0.0418866 
175 1 0.393276 0.369927 0.0476765 0.676776 -3.28614 -0.633849 -0.0856966 -0.105674 
179 1 0.452051 0.407915 0.0484741 0.970376 -3.30862 0.718534 0.168703 -0.534939 
180 1 0.402626 0.458366 0.0409546 2.49229 -3.24656 0.115036 0.406914 0.89014 
578 1 0.458144 0.457703 0.0951662 6.87064 -3.32048 0.0012903 -0.349122 -0.218677 
183 1 0.553561 0.39649 0.040729 7.71422 -3.19847 0.907948 0.945455 0.39441 
581 1 0.505915 0.402444 0.100838 5.05818 -3.2998 -0.0829103 0.26017 -0.0146935 
184 1 0.509584 0.450637 0.0355045 8.07748 -3.2431 0.253631 -0.00731804 0.802966 
188 1 0.59173 0.455308 0.0502912 7.31068 -3.31629 -0.0824575 -0.0547696 0.641849 
189 1 0.694897 0.401962 0.00162384 7.5014 -3.32033 0.308094 -0.114877 0.246581 
187 1 0.641431 0.405726 0.0537919 7.03233 -3.31201 -0.171222 0.086088 -0.247772 
191 1 0.707644 0.445815 0.0538269 0.722898 -3.32622 -0.165462 0.0494277 -0.405376 
186 1 0.647214 0.448703 0.0040482 7.4484 -3.25846 0.387147 0.665819 0.517234 
156 1 0.748586 0.393842 0.0501394 1.19591 -3.31208 0.588832 0.246698 0.0369811 
154 1 0.807609 0.389578 0.00380757 0.75374 -3.33104 0.548385 0.483243 0.0425318 
160 1 0.870606 0.384296 0.0514003 0.689501 -3.40661 -0.330214 0.200176 -0.352337 
195 1 0.81777 0.435692 0.0560506 1.40947 -3.23288 0.0322901 -0.618261 -1.30258 
193 1 0.761273 0.438997 0.00370718 0.281511 -3.37803 0.124911 0.205911 -0.282984 
593 1 0.76297 0.437111 0.102382 0.694039 -3.28758 -0.203096 0.359813 -0.112733 
124 1 0.982444 0.373225 0.0519641 0.491256 -3.29714 0.317442 0.0202517 -0.118453 
158 1 0.930967 0.380696 1.00343 1.36797 -3.26949 -0.863156 0.0769745 -0.0339247 
197 1 0.872779 0.431845 0.999803 1.55125 -3.33899 0.127231 -0.949576 0.321645 
199 1 0.930277 0.425868 0.0502082 0.884333 -3.34125 0.146985 -0.239495 0.13501 
561 1 0.987314 0.419367 0.0977875 0.667123 -3.31199 0.273841 0.0584888 -0.184232 
205 1 0.118857 0.493326 0.000256086 0.56761 -3.3171 -0.537775 -0.268179 0.0641633 
203 1 0.0587766 0.50236 0.0493924 0.707886 -3.31644 0.247148 -0.0215274 -0.319058 
208 1 0.122847 0.53458 0.0515296 0.934855 -3.35889 0.403878 0.204404 -0.200204 
204 1 0.0114665 0.553848 0.0482557 1.12152 -3.29275 -0.184462 -0.839381 0.36378 
201 1 0.00240089 0.504535 0.999105 0.58746 -3.27305 0.319095 0.530499 0.770233 
605 1 0.119149 0.490124 0.0981063 0.199779 -3.36357 0.23127 0.379816 0.158367 
207 1 0.181082 0.485624 0.0476035 0.954789 -3.33529 -0.682142 -0.271999 -0.0159023 
212 1 0.240728 0.522394 0.0489901 0.522796 -3.2785 -0.0803756 -0.18964 -0.265584 
609 1 0.236672 0.475422 0.0938643 0.822564 -3.33887 -0.060806 -0.0891922 0.433647 
606 1 0.18689 0.524852 0.0978416 0.640288 -3.34639 -0.437247 0.0815687 -0.0330917 
211 1 0.295415 0.470943 0.0484713 0.685474 -3.29997 -0.457259 -0.371367 -0.0249876 
215 1 0.351498 0.5077 0.0527252 2.19043 -3.27309 0.647529 0.449286 -0.601184 
613 1 0.358584 0.463058 0.0989926 2.85634 -3.28637 -0.804208 -0.252549 -0.232835 
610 1 0.298153 0.512478 0.098315 0.578122 -3.31648 0.0620603 0.262044 0.265413 
174 1 0.346755 0.467272 0.996496 0.644941 -3.32146 -0.292776 0.110824 -0.109288 
219 1 0.459412 0.504438 0.0421332 6.30365 -3.27841 0.143062 -0.709734 0.0234451 
617 1 0.411741 0.504326 0.0984675 6.02029 -3.24896 -0.319538 0.418825 0.0161265 
582 1 0.535024 0.459367 0.0981431 11.2085 -3.29713 0.116 0.349705 -0.185499 
225 1 0.595456 0.501515 0.00636116 8.20104 -3.31289 0.113582 0.00177398 0.119599 
223 1 0.538027 0.506943 0.0517348 7.7096 -3.31089 -0.0930965 -0.253531 0.481696 
227 1 0.595857 0.547084 0.0528112 1.15661 -3.25346 0.999065 -0.395945 0.228516 
586 1 0.597393 0.499917 0.0982581 0.248368 -3.33749 0.1369 -0.0305564 -0.000248874 
192 1 0.654278 0.495361 0.0518225 0.194779 -3.36196 0.0485822 0.00196142 0.0730356 
190 1 0.711016 0.490557 0.00219465 0.218463 -3.28457 0.0996886 -0.351362 0.329931 
231 1 0.715787 0.533176 0.0490576 0.600687 -3.36879 0.0153589 0.224311 0.435524 
229 1 0.656622 0.540845 0.00154282 0.564665 -3.30952 0.0519018 0.0756031 0.437722 
196 1 0.771441 0.483053 0.0493526 0.676247 -3.30632 -0.49387 0.214897 0.0491634 
194 1 0.829778 0.478669 1.00576 1.30199 -3.20577 -0.943955 0.100747 -0.325257 
235 1 0.833649 0.521219 0.0528688 0.534293 -3.31919 0.161419 0.33473 -0.119206 
233 1 0.771961 0.530927 0.00349269 0.748254 -3.34146 0.0374116 -0.142812 -0.0107617 
164 1 1.00194 0.462839 0.0501782 1.03343 -3.24107 -0.853965 -0.142726 -0.438011 
200 1 0.885876 0.47422 0.0492556 0.991127 -3.28831 -0.0153776 -0.203726 0.681755 
198 1 0.945224 0.465698 1.0034 1.51755 -3.26416 -0.781676 0.275225 -0.144633 
239 1 0.948038 0.511789 0.0528396 0.484406 -3.36951 -0.0526493 0.127667 -0.154189 
237 1 0.88956 0.517045 0.00574739 0.440817 -3.32736 0.312867 0.334063 -0.491353 
598 1 0.937378 0.467434 0.102029 0.768361 -3.37676 0.225253 0.240336 -0.135898 
243 1 0.0739803 0.586958 0.0480729 0.520237 -3.26224 0.423788 -0.473493 0.169164 
241 1 0.0137157 0.591297 8.97004e-05 0.693389 -3.29209 0.112962 0.272725 -0.302618 
244 1 0.026163 0.634482 0.0445624 1.14693 -3.30521 -0.0552952 -0.029455 0.198002 
642 1 0.081857 0.625924 0.0946464 1.03995 -3.31461 0.390665 0.464127 0.29276 
247 1 0.190273 0.570443 0.0485523 0.223551 -3.32562 0.0378976 -0.190176 -0.368163 
251 1 0.254994 0.605513 0.050323 2.43248 -3.19348 -0.314763 -0.134343 -0.444368 
248 1 0.143089 0.618345 0.0535914 2.47431 -3.26371 -0.442754 0.589847 -0.867034 
645 1 0.140285 0.578548 0.0970452 1.58525 -3.23632 -0.91646 -0.777421 0.249869 
649 1 0.249155 0.564816 0.0953194 0.937191 -3.32882 0.112888 -0.231161 0.796176 
646 1 0.202811 0.614889 0.0970648 1.50104 -3.23543 -0.233988 -0.217547 0.495011 
216 1 0.300921 0.557715 0.0447925 1.08799 -3.24641 0.476763 0.12772 0.337934 
255 1 0.355383 0.600502 0.0396054 8.82716 -3.30804 0.199581 -0.24859 0.403723 
614 1 0.356088 0.557857 0.100156 6.91546 -3.2696 -0.00311511 -0.794922 -0.611235 
653 1 0.310953 0.60413 0.101375 6.60203 -3.30179 -0.883454 0.178632 -0.0146558 
220 1 0.409334 0.549608 0.0436107 7.76069 -3.30831 -0.596805 0.0740341 -0.137172 
259 1 0.433586 0.609341 0.0530756 7.87173 -3.29258 -0.29022 0.222209 0.347395 
224 1 0.488058 0.558031 0.0570368 7.71135 -3.20708 -0.0544743 -0.286403 -0.182444 
261 1 0.492546 0.601265 0.0154254 7.60265 -3.2348 0.36965 -0.292756 -1.14125 
228 1 0.552782 0.594451 0.0540872 0.675721 -3.23947 -0.24369 0.287515 0.198162 
226 1 0.610607 0.590746 0.00818549 1.38423 -3.25103 -0.657067 -0.0797123 -0.580822 
222 1 0.542661 0.551618 0.00846714 6.78919 -3.26839 -0.230939 0.118003 -0.55997 
265 1 0.557584 0.63836 0.00889066 1.11099 -3.29542 -0.014647 0.245275 -0.442641 
232 1 0.662806 0.584137 0.0523752 0.538998 -3.26701 0.484393 -0.665458 0.362295 
230 1 0.718049 0.58103 0.00289418 0.819549 -3.35168 0.355352 -0.330265 -0.11119 
267 1 0.612164 0.634814 0.0540096 0.554528 -3.23229 0.484878 0.162619 -0.0661605 
271 1 0.732051 0.619259 0.0558629 1.55156 -3.25813 -0.20297 -0.00790216 -0.403279 
269 1 0.668801 0.627917 0.0105125 1.7618 -3.28969 0.427991 0.857659 -0.653143 
236 1 0.785455 0.571585 0.0542374 1.07648 -3.33121 -0.28927 0.0193561 -0.229673 
234 1 0.834607 0.564667 1.00164 1.45049 -3.30164 0.330787 0.625345 0.509883 
275 1 0.846642 0.611336 0.050242 0.38867 -3.34796 -0.395792 0.135978 0.0649989 
273 1 0.782611 0.616892 0.00756757 1.3761 -3.31379 0.279393 -0.0677287 -0.525178 
240 1 0.89696 0.565724 0.0518255 0.929033 -3.32169 -0.138244 -0.702995 -0.0714649 
238 1 0.949439 0.555719 1.00377 0.607666 -3.37994 0.155491 -0.064865 -0.278566 
277 1 0.901108 0.608513 0.00277213 0.319804 -3.27976 -0.194447 -0.338978 0.188796 
279 1 0.961486 0.600313 0.0509345 0.291003 -3.30687 -0.114098 0.184745 -0.238457 
278 1 0.962697 0.647607 -0.000227186 1.89329 -3.28526 0.0362524 -0.344836 0.373104 
283 1 0.0849406 0.672925 0.0401852 3.38586 -3.28972 0.111108 -0.316452 0.752831 
284 1 0.0316348 0.723082 0.0518857 1.79258 -3.30248 0.329004 -0.0738565 -0.434105 
681 1 0.0366723 0.675062 0.0987651 1.35059 -3.3196 -0.231266 0.257938 -0.337276 
682 1 0.0951891 0.716128 0.0926358 1.21216 -3.32257 0.227894 -0.139115 0.595863 
252 1 0.204931 0.653861 0.0495035 2.51071 -3.26037 -0.26536 0.40815 -0.110516 
287 1 0.149637 0.706048 0.0470268 1.38442 -3.32058 0.234793 0.0307169 -0.189756 
689 1 0.203694 0.702236 0.0974119 2.11896 -3.31775 0.00430096 0.453779 -0.0165934 
685 1 0.145484 0.665098 0.0978929 0.809896 -3.28099 -0.39089 -0.0460136 -0.45818 
256 1 0.30261 0.645622 0.0409974 8.83397 -3.24691 0.483944 0.989197 0.13085 
291 1 0.255322 0.696125 0.0416832 6.21264 -3.32091 0.273898 0.203375 0.105346 
295 1 0.331779 0.710162 0.0536763 6.46838 -3.29381 0.0196757 -0.547648 -0.190672 
650 1 0.257757 0.656073 0.100863 7.40971 -3.27904 -0.0571069 -0.0626829 -0.201073 
260 1 0.380848 0.660831 0.0525487 6.66067 -3.32264 0.401565 -0.397589 -0.0437966 
297 1 0.395074 0.700194 0.00678042 8.49815 -3.28808 -0.510152 -0.097926 -0.380368 
264 1 0.448564 0.696632 0.0522072 0.434432 -3.31431 0.105042 -0.17355 0.222489 
258 1 0.448489 0.64645 0.0018327 7.94787 -3.25465 -0.499749 0.288125 0.361941 
263 1 0.500822 0.64871 0.0517732 0.779066 -3.26123 -0.419016 -0.0695831 0.341938 
268 1 0.563397 0.684737 0.0527212 0.488561 -3.26493 0.281748 0.295609 0.0786818 
262 1 0.507328 0.692774 0.00708493 1.23941 -3.31583 0.0713596 -0.195379 -0.480565 
305 1 0.568917 0.732062 0.00820437 1.4151 -3.29385 -0.056934 -0.407953 -0.701365 
266 1 0.614461 0.680962 0.00328075 1.08604 -3.38046 0.490438 -0.164858 0.00531747 
272 1 0.674891 0.673714 0.0547426 1.04108 -3.33905 0.0382198 -0.128811 -0.61559 
270 1 0.73501 0.668263 0.00421934 0.237989 -3.34103 -0.350585 -0.0750899 0.02165 
307 1 0.623513 0.722428 0.0546523 0.954665 -3.33655 0.657414 0.00936568 0.0529 
309 1 0.684889 0.719592 0.00336899 0.485442 -3.30943 -0.24035 -0.180391 0.219237 
276 1 0.794099 0.662334 0.0487081 0.513925 -3.34642 0.318052 0.0157334 0.032313 
274 1 0.852676 0.656462 0.000423886 0.966819 -3.24095 -0.883668 -0.115501 0.694269 
311 1 0.73965 0.71053 0.0498055 1.10172 -3.28334 0.494676 0.154017 0.123836 
315 1 0.861788 0.699835 0.0460702 0.921477 -3.31696 -0.62681 0.0188904 0.73048 
313 1 0.799093 0.711281 0.00315579 1.8064 -3.33461 -0.0129846 -0.637694 -0.175672 
280 1 0.910061 0.648443 0.05139 0.446854 -3.32747 0.0669879 0.237951 -0.0997394 
319 1 0.98008 0.680087 0.0530248 3.24824 -3.29367 -0.578905 0.540393 -0.242351 
678 1 0.969453 0.640628 0.100482 0.244676 -3.21639 -0.0344197 0.518715 -0.558028 
288 1 0.0950466 0.757527 0.046544 0.986986 -3.2958 0.441076 0.313784 -0.0497423 
725 1 0.102104 0.807261 0.105921 7.54988 -3.30433 0.368938 -0.257504 -0.498023 
323 1 0.0468313 0.804954 0.0522678 1.73877 -3.20715 0.984914 0.865463 -0.340163 
721 1 0.0442541 0.766077 0.0994301 0.727447 -3.23573 0.271152 -0.618224 0.426018 
292 1 0.2057 0.746685 0.0428401 6.49662 -3.28345 0.127497 0.0631607 -0.0561149 
327 1 0.163262 0.799506 0.0414954 7.38375 -3.26993 -0.0958312 -0.78818 -0.00522648 
686 1 0.158159 0.760166 0.0944022 7.99648 -3.33573 -0.582751 -0.299606 0.171921 
331 1 0.246243 0.810809 0.0489296 7.59612 -3.26474 -0.590423 -0.465864 0.199221 
690 1 0.2315 0.772792 0.0987059 6.82215 -3.15659 -0.200982 -0.542979 -0.565231 
296 1 0.282852 0.754495 0.049254 9.53311 -3.22272 0.34353 0.80252 0.47994 
294 1 0.345869 0.75216 0.00346432 7.56277 -3.31054 -0.488423 -0.516619 -0.406167 
300 1 0.348603 0.793186 0.0492482 0.718186 -3.28592 -0.30247 0.548724 0.263419 
333 1 0.294659 0.801486 -5.23111e-05 6.91172 -3.313 -0.0885522 0.0765915 0.301074 
694 1 0.297361 0.801963 0.0997076 0.767419 -3.28734 0.228313 -0.0408078 -0.411103 
299 1 0.396203 0.744857 0.0527757 0.370655 -3.26488 0.723985 0.0234402 -0.259976 
304 1 0.458615 0.783303 0.0492817 0.768411 -3.36632 0.518731 0.0899552 0.0995796 
301 1 0.453825 0.736996 0.00235695 0.873479 -3.33361 0.14339 0.644457 -0.284779 
698 1 0.403632 0.789179 0.0996648 0.818452 -3.28877 0.706155 -0.0469641 -0.174531 
298 1 0.404282 0.791679 0.00324412 0.597047 -3.26423 0.178873 -0.423359 -0.375582 
303 1 0.510373 0.738626 0.0512847 1.30805 -3.31898 0.116964 -0.17852 -0.106003 
308 1 0.575979 0.775711 0.0509616 0.953358 -3.28312 0.109829 -0.451145 0.328486 
302 1 0.521241 0.78135 -0.00229638 1.6316 -3.31871 -0.483258 -0.051345 0.386194 
702 1 0.516522 0.774966 0.100288 1.12012 -3.29147 0.397978 0.0377649 -0.238436 
345 1 0.583758 0.816819 1.00194 0.928399 -3.27273 0.668103 -0.227443 -0.00602709 
312 1 0.696734 0.760422 0.0522627 0.303027 -3.38365 -0.379046 0.0976316 0.191776 
306 1 0.634147 0.765742 0.00771966 1.01339 -3.34768 0.225539 0.341034 -0.18862 
347 1 0.642672 0.809826 0.0573225 1.21791 -3.30338 0.366048 -0.603833 -0.478218 
349 1 0.698785 0.80481 0.00449385 0.414706 -3.31889 0.110173 -0.0665694 0.318164 
310 1 0.754718 0.759002 0.00526133 1.96002 -3.25586 -0.95749 -0.480887 -0.740658 
351 1 0.76518 0.797463 0.051739 0.810244 -3.26816 -0.617301 0.708055 0.190471 
316 1 0.809443 0.752346 0.0503697 1.04992 -3.25869 0.619257 -0.808336 0.300879 
355 1 0.879296 0.781136 0.049665 1.84266 -3.33095 -0.138128 0.679095 0.12841 
353 1 0.816788 0.791152 0.000494074 0.567579 -3.28445 0.321677 0.340645 -0.0536084 
314 1 0.868548 0.743609 -0.000754777 0.764673 -3.30324 -0.206989 -0.252208 -0.00945409 
320 1 0.924946 0.73305 0.0527397 0.863805 -3.33194 0.36701 0.10897 -0.191758 
359 1 0.985355 0.775557 0.0500639 1.46328 -3.19632 -0.480885 -1.13512 0.107514 
328 1 0.109313 0.841132 0.0447163 7.10368 -3.27931 -0.0125498 -0.0419366 -0.191661 
363 1 0.0635366 0.89079 0.046951 2.02714 -3.19336 0.540391 0.293928 -0.0833635 
722 1 0.0531843 0.852857 0.104011 3.21616 -3.31326 0.0589565 0.456157 -0.169296 
761 1 0.00474426 0.913385 0.104982 8.34301 -3.27862 0.056096 -0.633122 -0.286731 
332 1 0.190163 0.856598 0.0504598 7.59014 -3.20098 -0.409096 0.637157 -0.0266363 
367 1 0.13629 0.911969 0.0476549 5.63184 -3.31304 0.199848 -0.203971 -0.0824058 
730 1 0.19204 0.906865 0.0962622 1.18182 -3.25225 0.287565 -0.234279 0.0544119 
369 1 0.195375 0.903551 1.00176 6.2913 -3.31529 -0.567377 -0.225558 0.293627 
336 1 0.246824 0.894764 0.0509509 1.38863 -3.29065 0.589935 0.359403 -0.106847 
330 1 0.240687 0.852321 0.00346736 7.02074 -3.2557 0.583538 -0.0772406 -0.489822 
335 1 0.301654 0.849791 0.0512969 1.49261 -3.26281 0.0672749 -0.63798 -0.648399 
340 1 0.366652 0.87852 0.049183 1.24429 -3.29035 0.0773166 0.724167 -0.186622 
337 1 0.357508 0.839622 1.00147 0.503811 -3.33287 -0.492965 0.00602573 -0.0378307 
334 1 0.304927 0.890934 0.999699 0.879031 -3.29411 0.236112 -0.430837 0.763882 
339 1 0.413292 0.831924 0.052885 1.21539 -3.30039 0.602225 0.111477 -0.478422 
344 1 0.479148 0.873277 0.0443372 1.73127 -3.35457 0.384422 -0.713068 0.393911 
738 1 0.427653 0.879079 0.0950064 1.11443 -3.28777 -0.279192 -0.727314 0.140655 
741 1 0.477303 0.828012 0.0959017 1.65164 -3.31825 -0.662526 -0.0466599 -0.0235092 
338 1 0.419286 0.87546 -0.00447014 1.27473 -3.26894 0.0805917 0.339849 0.76324 
341 1 0.466156 0.827651 -0.000755773 0.992549 -3.33088 0.59678 0.135731 0.331558 
343 1 0.531249 0.822452 0.0519937 0.715625 -3.29761 -0.386901 0.234332 -0.431622 
348 1 0.601925 0.857835 0.0546983 1.83367 -3.29713 -0.546034 0.280947 -0.046199 
383 1 0.548721 0.906867 0.0521675 1.18045 -3.29848 -0.631202 0.126308 -0.423114 
342 1 0.544218 0.86412 0.00203798 2.33505 -3.23516 -1.09031 0.293385 0.0796216 
385 1 0.601473 0.899454 1.00106 0.876768 -3.28643 0.589433 0.742608 0.00158765 
352 1 0.706493 0.84515 0.054206 0.918233 -3.34271 0.471062 0.250913 -0.137116 
389 1 0.714749 0.888014 7.54988e-08 0.796532 -3.32408 -0.043482 0.515897 0.286313 
387 1 0.6627 0.897148 0.0539583 0.829384 -3.31205 -0.168712 -0.338709 -0.347183 
346 1 0.651823 0.853197 0.00385583 0.275571 -3.29955 -0.190819 0.090076 -0.0775755 
356 1 0.824013 0.837221 0.0478746 0.847265 -3.25562 -0.39207 -0.666811 0.639898 
391 1 0.772611 0.884538 0.0538944 0.557521 -3.36519 -0.162693 -0.0293598 -0.355574 
350 1 0.762669 0.84057 0.00161029 0.376776 -3.32146 -0.0142721 0.00495413 0.203556 
393 1 0.827353 0.876014 -7.24905e-05 0.591885 -3.27347 -0.0051315 0.495696 -0.142008 
324 1 1.00076 0.864244 0.054709 2.93234 -3.2711 -0.527084 -0.460761 -0.101728 
354 1 0.880027 0.830084 0.00455857 1.34551 -3.32361 0.28161 -0.436267 -0.76462 
395 1 0.882082 0.871901 0.0493762 1.23882 -3.22032 0.685282 0.392972 0.117827 
360 1 0.9408 0.822413 0.049362 0.629277 -3.32107 -0.332953 0.421065 0.395991 
399 1 0.941647 0.909613 0.0478983 2.67488 -3.23099 0.669255 -0.118571 0.0159026 
368 1 0.0888376 0.960563 0.0438586 6.14572 -3.22503 -0.504811 -0.0318751 1.27334 
364 1 0.0108798 0.941336 0.0465105 3.79086 -3.32431 0.235846 0.115955 -0.134056 
766 1 0.0996443 0.00328229 0.0933826 1.20974 -3.27601 -0.250309 0.328839 0.510179 
5 1 0.094258 0.00366547 0.00288455 5.82346 -3.24544 0.102301 0.0220249 -0.766903 
371 1 0.200166 0.948586 0.0509637 0.645226 -3.28022 0.294073 -0.0653095 -0.248963 
372 1 0.150799 0.995205 0.0465004 0.716038 -3.21714 0.682693 0.668623 0.444851 