ITEM: TIMESTEP
12250
ITEM: NUMBER OF ATOMS
4000
ITEM: BOX BOUNDS pp pp pp
2.4147467790528618e+00 3.8085253220946562e+01
-2.3894643677274932e+00 4.2889464367726546e+01
-7.3398125813637249e-01 4.1233981258136517e+01
ITEM: ATOMS id type xs ys zs c_csym c_peratom fx fy fz 
8 1 0.061949 0.0893341 0.0563565 0.752488 -3.24205 -0.75716 0.387389 -0.446183 
405 1 0.0554811 0.0443827 0.101807 0.567436 -3.23775 -0.448636 -0.0210452 0.257001 
7 1 0.107725 0.0407121 0.0577851 0.242931 -3.25193 0.126597 -0.496717 -0.21807 
406 1 0.112642 0.0880471 0.100436 1.11385 -3.20982 0.377949 -0.201055 0.816254 
3 1 0.0449401 -0.00111929 0.0582649 6.68227 -3.31755 0.179837 -0.059307 -0.288902 
12 1 0.164707 0.0824669 0.0544412 0.95383 -3.2022 0.933235 -0.431314 -0.36728 
11 1 0.215465 0.0248702 0.0518171 1.15166 -3.33395 0.370815 0.651995 0.0245456 
409 1 0.163566 0.034719 0.102144 0.264194 -3.33425 0.185923 0.103319 0.116654 
410 1 0.223441 0.0747087 0.0967025 1.06845 -3.33454 0.208914 -0.0954144 0.146804 
16 1 0.278236 0.0626958 0.047941 2.11109 -3.30561 -0.115058 0.871339 0.238873 
15 1 0.329128 0.0166768 0.0508429 0.950372 -3.27573 -0.326397 0.337983 -0.211646 
413 1 0.268835 0.0242686 0.103056 1.21971 -3.32233 0.430686 -0.0602225 -0.622461 
414 1 0.330549 0.0631511 0.094982 1.14391 -3.35026 0.112241 0.342154 0.444012 
20 1 0.386728 0.0583123 0.0491713 1.29557 -3.27672 0.445988 -0.701766 -0.503751 
19 1 0.442274 0.0011584 0.0501832 1.76169 -3.2734 -0.698674 0.725391 -0.370302 
59 1 0.460671 0.0941184 0.046835 1.76144 -3.29702 -0.674657 0.346217 0.0535868 
418 1 0.447908 0.0518853 0.0960243 0.518197 -3.32371 0.254716 -0.32197 -0.255735 
417 1 0.384919 0.0107223 0.096539 0.526157 -3.34606 -0.017327 0.344556 -0.00438051 
421 1 0.498257 -0.00145535 0.0951105 0.74066 -3.30256 0.0267256 0.535456 0.220146 
24 1 0.500999 0.0399673 0.0458509 2.3491 -3.29338 0.306912 0.63745 0.4249 
461 1 0.510549 0.0937271 0.093904 0.773173 -3.32236 0.33333 -0.230877 0.264435 
28 1 0.62098 0.0351865 0.0486356 0.515436 -3.34617 -0.34007 -0.0578718 -0.122088 
23 1 0.555759 0.995042 0.0469197 0.333507 -3.26964 -0.136779 -0.189865 0.0891253 
422 1 0.56018 0.0408741 0.0959604 0.320038 -3.37505 -0.114453 0.0646794 0.248186 
63 1 0.571641 0.0830119 0.052053 1.63061 -3.32913 -0.224038 0.374101 -0.651837 
465 1 0.627219 0.0815974 0.0973108 0.435567 -3.29622 -0.63408 -0.194967 -0.282855 
32 1 0.734116 0.0193325 0.0485819 1.03061 -3.26745 -0.311533 0.918606 -0.128543 
67 1 0.683315 0.0707182 0.0455152 0.516652 -3.29632 -0.194157 0.0357103 -0.0327787 
469 1 0.736221 0.0691602 0.0903238 1.72195 -3.29084 0.682539 -0.329574 0.356255 
426 1 0.672892 0.0302131 0.0984415 1.1303 -3.28299 -0.332025 0.0873064 -0.542088 
36 1 0.805382 0.0570095 0.0425008 2.76043 -3.28479 -0.801148 0.298818 -0.0820596 
35 1 0.848399 0.00922452 0.0419156 0.742738 -3.3148 0.218945 0.2326 -0.313508 
434 1 0.857883 0.0501276 0.0982323 6.32343 -3.27195 0.353277 0.772243 -0.861955 
75 1 0.859297 0.0972944 0.0428007 6.14815 -3.27666 0.942845 -0.46654 -0.131483 
473 1 0.81119 0.100057 0.0939555 5.96642 -3.27465 -0.37757 -0.182067 -0.0719558 
4 1 0.995624 0.0516778 0.0569173 7.69231 -3.32166 0.0575374 0.192762 -0.0299367 
401 1 0.994385 0.00420385 0.102973 7.0507 -3.20744 0.321114 -0.149375 0.0788056 
40 1 0.914496 0.0506217 0.0465702 6.93368 -3.37234 -0.282541 0.0428245 -0.284401 
402 1 0.00969511 0.0960772 0.104215 0.683396 -3.34773 -0.191043 -0.0366587 0.0721332 
43 1 0.0130076 0.141151 0.0524961 0.752093 -3.27647 -0.33126 0.226191 0.646451 
48 1 0.0689792 0.181712 0.0521104 0.290681 -3.35546 0.213004 0.0879583 0.39559 
45 1 0.0620856 0.137601 0.00651482 0.470992 -3.282 0.29532 -0.383355 -0.324491 
42 1 0.0117088 0.186006 0.00389472 0.224145 -3.3337 -0.0246048 0.154777 -0.0498123 
47 1 0.119266 0.13121 0.0522514 0.259502 -3.30325 -0.115973 0.431825 -0.00421985 
46 1 0.122917 0.178247 0.00282577 0.438456 -3.25579 0.101807 -0.464757 -0.0544997 
445 1 0.0679692 0.136245 0.106259 0.793587 -3.33338 -0.371826 0.165113 -0.457133 
442 1 0.0142969 0.185247 0.103135 0.385913 -3.35234 0.181844 0.09614 -0.214252 
52 1 0.177283 0.17317 0.0484822 0.929737 -3.33538 0.709481 -0.420868 0.30209 
51 1 0.232715 0.119902 0.0474296 1.03955 -3.38295 -0.337915 -0.0677135 0.110469 
450 1 0.23601 0.170147 0.0983961 1.1559 -3.32829 -0.0360178 -0.520948 -0.0634312 
449 1 0.175587 0.122589 0.0984702 1.31864 -3.28024 0.244004 0.820838 0.246671 
55 1 0.342475 0.109258 0.0463079 0.8142 -3.26719 -0.359751 -0.531207 0.229642 
56 1 0.295261 0.156769 0.0482552 0.841086 -3.29757 -0.284524 0.453332 0.383788 
95 1 0.360562 0.198815 0.0436565 1.72791 -3.31633 -0.275734 -0.00469364 0.789841 
453 1 0.2798 0.118147 0.100336 2.75792 -3.28079 0.458617 -0.432267 -0.345489 
60 1 0.40505 0.148506 0.0468327 0.797442 -3.36315 0.363721 -0.2106 0.101817 
97 1 0.418141 0.194108 0.998456 0.870691 -3.27666 -0.199056 -0.937208 0.293095 
99 1 0.471488 0.185588 0.0483599 0.542564 -3.25998 -0.741492 0.135761 -0.0517721 
457 1 0.399451 0.0972886 0.0932737 2.09458 -3.2778 -0.0318383 1.07454 0.333028 
458 1 0.460076 0.144724 0.0964164 0.504682 -3.33187 -0.0653114 -0.432853 -0.090351 
497 1 0.410779 0.191518 0.099456 0.89553 -3.3552 -0.0870809 0.400213 -0.584832 
64 1 0.520678 0.141007 0.0502902 2.15713 -3.2672 -0.16601 -0.859763 -0.331881 
462 1 0.575372 0.132658 0.0935385 0.690098 -3.34771 0.0755245 -0.069073 0.487786 
501 1 0.522204 0.184376 0.0985084 1.10733 -3.2777 -0.0188638 -0.122594 0.221426 
103 1 0.585282 0.171902 0.0442707 0.459058 -3.30171 0.000246707 0.0269364 0.0296737 
68 1 0.635759 0.1224 0.0451546 0.415713 -3.35957 -0.278823 -0.159228 0.103332 
505 1 0.642443 0.165807 0.0942554 0.773772 -3.30227 -0.1346 0.308146 -0.0395504 
72 1 0.700449 0.158737 0.0499382 1.26854 -3.29889 -0.282017 -0.036189 -0.304911 
466 1 0.689343 0.114658 0.0940599 0.632659 -3.25095 0.290078 0.666244 -0.0182291 
71 1 0.749382 0.109112 0.044559 0.502158 -3.2639 0.0497577 -0.330192 0.00312342 
470 1 0.762334 0.14748 0.0917856 8.2045 -3.28542 -0.463474 0.0924892 0.736495 
76 1 0.813219 0.142585 0.0440102 6.06988 -3.22581 -0.0482718 0.389612 -0.385317 
474 1 0.849204 0.150487 0.10102 5.429 -3.1706 0.240441 0.60052 -0.150012 
79 1 0.951414 0.105948 0.0553424 8.14806 -3.22243 -0.336659 -0.502262 -0.0603367 
477 1 0.901614 0.103005 0.102901 5.82298 -3.26776 0.0444674 -0.228372 -0.490701 
44 1 0.959235 0.19541 0.0519318 0.700227 -3.35137 -0.113813 -0.702387 0.171265 
80 1 0.898002 0.15099 0.0548145 7.11288 -3.31013 0.330044 0.298148 -0.359171 
478 1 0.904214 0.202442 0.0990997 2.34909 -3.31354 0.377947 -0.848078 0.236131 
441 1 0.958282 0.145809 0.102009 0.521514 -3.29191 -0.0809988 0.312241 -0.0240735 
41 1 0.998814 0.0975738 0.00848758 6.28008 -3.30493 0.377686 -0.099999 -0.324082 
78 1 0.947659 0.148408 0.00305329 6.98705 -3.33565 0.126547 0.340608 0.380536 
83 1 0.0233805 0.231874 0.0518721 0.616397 -3.31878 0.0232147 -0.10594 -0.00372815 
88 1 0.0817198 0.273172 0.0502436 0.701405 -3.32153 -0.0392507 -0.324228 0.470812 
85 1 0.0748998 0.225018 0.00222836 0.486022 -3.30938 -0.259497 0.367769 0.169346 
82 1 0.0254691 0.277372 0.00337695 0.182081 -3.34647 0.0303249 -0.0894437 -0.193741 
87 1 0.130482 0.221936 0.0508509 0.3774 -3.33219 -0.263125 0.180621 0.334236 
91 1 0.244328 0.21095 0.0503796 0.383225 -3.35659 -0.051905 -0.200156 -0.309303 
92 1 0.197514 0.261968 0.0529829 0.610877 -3.33243 -0.292078 -0.0981262 -0.0759448 
86 1 0.13758 0.270146 0.00893212 1.69604 -3.2862 0.203442 -0.6093 -0.640293 
90 1 0.250227 0.25825 0.00296545 1.04258 -3.29852 0.375278 -0.590946 0.0644534 
89 1 0.183688 0.217393 0.0027407 0.688173 -3.33675 0.56103 0.179824 -0.0906677 
493 1 0.302321 0.205801 0.0998589 0.825026 -3.32501 0.034008 -0.495077 -0.527088 
96 1 0.308167 0.248633 0.0491251 0.433051 -3.33212 0.218035 -0.0527433 0.0527966 
135 1 0.376518 0.289444 0.0538355 0.834055 -3.28725 -0.184909 -0.317955 -0.128851 
133 1 0.321162 0.2908 0.00357516 1.16045 -3.32329 -0.243541 0.197314 -0.103957 
93 1 0.299352 0.201554 0.00214793 0.882857 -3.34597 0.00850595 0.610369 -0.39303 
94 1 0.370376 0.24146 0.998619 0.77833 -3.27557 -0.616821 0.284354 0.178127 
100 1 0.425482 0.237194 0.0469443 0.7282 -3.31512 -0.443689 -0.095584 0.329355 
139 1 0.484953 0.275389 0.0483337 0.812358 -3.27575 -0.034599 0.0519338 -0.242868 
537 1 0.430981 0.283048 0.102064 1.71826 -3.23382 -0.754299 0.648491 -0.436661 
498 1 0.473306 0.237032 0.0974241 1.30799 -3.27524 0.372236 -0.962325 0.301387 
98 1 0.480425 0.230137 0.998325 0.492769 -3.2815 -0.0989588 -0.271428 0.16464 
137 1 0.429172 0.283122 0.00274301 1.89177 -3.35597 -0.174881 0.0953987 -0.186849 
104 1 0.529103 0.221864 0.0479844 0.98655 -3.32438 0.650183 0.413502 -0.0880132 
108 1 0.597553 0.255349 0.0414676 0.825063 -3.32329 -0.221587 -0.0585728 0.611174 
502 1 0.587771 0.212787 0.0934144 1.58046 -3.289 0.472688 0.722866 -0.410623 
541 1 0.540083 0.268028 0.0965327 0.527941 -3.28479 0.188198 -0.212365 -0.484499 
107 1 0.65004 0.205691 0.0460418 0.408792 -3.28682 -0.269474 0.0538153 0.250678 
509 1 0.710854 0.198768 0.103037 8.6068 -3.27513 -0.0905565 0.489641 -0.889966 
112 1 0.710936 0.242998 0.0424597 6.90623 -3.27467 0.142383 0.449324 0.458877 
147 1 0.662038 0.294288 0.0410718 6.22391 -3.29111 0.0866025 0.104632 -0.386157 
506 1 0.655681 0.246362 0.0974083 5.62152 -3.27711 -0.0613992 -0.290362 -0.541864 
510 1 0.74329 0.255289 0.100153 7.6992 -3.28476 0.049212 -0.631652 0.230279 
513 1 0.796194 0.199095 0.103517 5.48522 -3.27736 0.174076 0.42458 0.0322583 
115 1 0.846788 0.198442 0.0557357 6.70387 -3.2801 0.16762 0.0329734 -0.128807 
111 1 0.757951 0.195149 0.0451716 7.15161 -3.27026 0.535438 -0.15355 -0.122326 
116 1 0.798654 0.245133 0.0550009 6.25313 -3.26125 -0.177313 0.402087 0.176085 
120 1 0.860129 0.293642 0.046168 2.25684 -3.23206 0.50132 -0.152713 0.929867 
114 1 0.84998 0.245442 0.00599305 8.24923 -3.27626 -0.0422271 -0.12933 -0.145659 
153 1 0.803234 0.294423 0.0110419 8.1302 -3.24552 -0.673058 0.213784 -0.837158 
81 1 0.963075 0.236615 0.0057614 0.605225 -3.32133 0.0163401 0.179082 -0.491628 
481 1 0.969789 0.238981 0.098783 1.25149 -3.28547 -0.410084 -0.650696 0.423659 
84 1 0.972362 0.281103 0.0503396 0.231186 -3.25171 -0.0584144 -0.00746524 0.0709443 
119 1 0.905835 0.242138 0.0496799 0.956836 -3.3108 0.369989 0.158058 0.00933856 
118 1 0.919925 0.289049 1.00257 1.37215 -3.28797 -0.313131 -0.60668 -0.54439 
123 1 0.0323364 0.320266 0.0512717 0.451967 -3.31062 0.231637 0.292347 0.334786 
125 1 0.0877557 0.318608 0.00380324 0.426228 -3.28703 -0.0831932 -0.209599 0.00729543 
128 1 0.0927611 0.358158 0.0534244 0.794274 -3.32299 -0.165562 0.208534 0.171884 
122 1 0.0405383 0.366489 0.00200536 0.396011 -3.35441 -0.382807 -0.0510554 -0.0576285 
129 1 0.200039 0.304344 0.00459321 0.523678 -3.2976 0.303857 0.416951 0.266765 
127 1 0.144417 0.313906 0.0532919 0.72559 -3.28795 0.0948718 -0.58305 0.214253 
132 1 0.202727 0.35322 0.0550886 1.46311 -3.2555 0.972152 -0.57461 -0.00506825 
529 1 0.200265 0.303487 0.102175 0.535326 -3.38941 0.236325 0.225611 -0.107671 
169 1 0.217102 0.393217 0.00754571 1.24823 -3.34301 -0.0790743 0.373085 -0.229848 
126 1 0.152234 0.355375 0.00626585 0.454476 -3.26767 0.100732 -0.059593 -0.422026 
130 1 0.265758 0.341225 0.007497 1.15249 -3.3239 0.110949 0.308646 -0.333673 
131 1 0.261317 0.301269 0.0535508 0.920232 -3.31256 -0.201265 -0.147401 0.159247 
136 1 0.329693 0.338881 0.0537619 2.56082 -3.2868 -0.475749 0.344097 0.188119 
175 1 0.382264 0.389265 0.053374 7.59326 -3.29208 -0.2274 -0.41007 0.507896 
134 1 0.37894 0.336449 0.00560144 6.13891 -3.29324 0.235771 -0.0748539 -0.221423 
171 1 0.273592 0.388435 0.0536409 2.26788 -3.29961 -0.0238592 0.387722 0.00810538 
173 1 0.325151 0.388618 0.0039021 7.11895 -3.25231 -0.186716 -0.219714 0.480432 
140 1 0.429234 0.332516 0.0580553 6.27304 -3.27561 0.38027 0.180919 -0.333701 
144 1 0.501128 0.357613 0.0467041 1.78235 -3.247 0.053798 0.267245 -0.584759 
538 1 0.497232 0.319666 0.0920944 6.67552 -3.26747 -0.293658 -0.109266 0.933434 
143 1 0.550979 0.305751 0.0427785 0.597593 -3.30827 0.215982 0.30853 0.229057 
545 1 0.610128 0.296029 0.091039 7.5116 -3.31397 -0.272665 0.385047 -0.00828295 
148 1 0.61379 0.343136 0.0448297 6.60331 -3.35103 0.4247 -0.0501355 -0.267743 
542 1 0.564762 0.349525 0.0973631 6.44206 -3.23077 -0.21988 -0.481688 -0.473275 
183 1 0.566504 0.390242 0.0459401 6.49177 -3.27263 -0.00145543 0.12916 -0.517969 
581 1 0.51333 0.39285 0.09752 6.04219 -3.22322 -0.469325 0.501144 -0.59557 
549 1 0.688246 0.298031 0.0998721 8.28682 -3.2539 0.328224 0.956765 0.447747 
151 1 0.751017 0.300114 0.0573319 7.38276 -3.24749 -0.964789 0.0365047 -0.585373 
152 1 0.697718 0.351931 0.0584558 8.43819 -3.34903 -0.0456005 -0.392637 -0.400393 
189 1 0.701616 0.397189 0.00792672 7.5931 -3.24601 -0.0236242 -0.10656 -0.177863 
150 1 0.748027 0.341449 0.00354239 9.63279 -3.31122 0.451797 0.238658 0.516584 
155 1 0.808897 0.34128 0.0553905 1.26714 -3.33643 0.267553 0.334098 -0.37037 
156 1 0.760695 0.391168 0.0460959 3.02086 -3.30229 0.156534 -0.244419 0.540903 
154 1 0.823857 0.389229 0.00596521 2.79644 -3.17436 -0.937157 -0.896292 -0.485937 
160 1 0.873222 0.383718 0.0496582 0.424948 -3.29703 0.0885026 -0.379944 0.581996 
157 1 0.871748 0.336927 0.998517 2.01965 -3.31122 -0.36939 0.0490978 0.31206 
159 1 0.920545 0.32956 0.0480809 1.09104 -3.26966 -0.081876 0.670076 0.748401 
121 1 0.976163 0.32797 0.00696274 1.70824 -3.25814 0.51678 0.0112397 -1.11309 
124 1 0.986138 0.371715 0.0481541 0.684242 -3.32273 0.16566 0.384418 0.460394 
158 1 0.929639 0.379109 0.00147779 0.478708 -3.30315 0.185474 -0.117273 0.192797 
163 1 0.0515801 0.41058 0.0528372 0.763664 -3.38821 -0.646424 -0.238137 -0.137139 
165 1 0.101887 0.400698 0.999945 2.02091 -3.28618 0.122993 0.600967 0.492404 
168 1 0.108769 0.44862 0.056312 1.20424 -3.24115 -0.271295 0.627113 -0.112532 
162 1 0.0566921 0.456564 0.00581778 1.08995 -3.30165 0.105793 -0.657 -0.496453 
205 1 0.115084 0.494373 0.00196283 1.84001 -3.30772 0.0619868 0.283134 0.604021 
167 1 0.153365 0.39669 0.0537026 1.10965 -3.24299 0.110117 0.576807 0.148345 
172 1 0.221643 0.440472 0.0572256 1.51473 -3.3154 -0.585023 0.121065 -0.495392 
166 1 0.15865 0.441367 0.0121659 3.81372 -3.27258 0.747918 0.422324 -0.942401 
207 1 0.171952 0.49416 0.0512412 2.31363 -3.2919 -0.950569 -0.132728 0.385039 
209 1 0.223048 0.493811 0.00982117 7.35811 -3.24562 0.0920969 -0.201611 -0.472958 
176 1 0.329693 0.438922 0.0521283 6.8312 -3.27529 -0.212673 -0.512678 0.654939 
170 1 0.272741 0.440984 0.00898053 7.76292 -3.29305 -0.119348 -0.310157 -0.0914639 
211 1 0.278038 0.487108 0.0579235 7.63657 -3.28613 -0.314583 -0.136227 -0.266395 
179 1 0.454664 0.408787 0.0458049 5.83842 -3.2692 -0.322068 -0.418828 0.0253198 
180 1 0.401334 0.453404 0.0356647 7.62372 -3.26401 0.435709 0.0396337 0.675786 
578 1 0.46243 0.44608 0.0987196 6.95741 -3.293 -0.0140289 -0.210839 -0.465813 
219 1 0.472694 0.489244 0.0472698 6.34655 -3.27912 -0.558674 -0.360231 -0.374504 
617 1 0.410558 0.492377 0.09177 9.38473 -3.35752 -0.0953002 -0.160483 0.0670767 
585 1 0.595251 0.404185 0.102885 6.32292 -3.15909 -0.36539 0.276715 0.0393751 
184 1 0.519038 0.438439 0.0428443 5.7448 -3.18597 -0.0422913 0.624081 0.399836 
188 1 0.598094 0.445915 0.0550724 6.17042 -3.30091 0.0372035 0.49351 -0.259063 
582 1 0.54421 0.451105 0.100621 7.25371 -3.26279 -0.131113 0.178348 0.413907 
225 1 0.600798 0.493949 0.0112558 7.07865 -3.36314 -0.0926795 -0.0163883 -0.229685 
187 1 0.652933 0.401824 0.0565536 7.0386 -3.28615 -0.711789 -0.305932 -0.173513 
191 1 0.707116 0.441714 0.0545336 1.05193 -3.25648 0.645616 0.455956 -0.309874 
192 1 0.660955 0.492959 0.0546182 0.660883 -3.28798 -0.212832 0.199062 -0.546773 
190 1 0.718268 0.487118 0.00414314 1.14045 -3.31186 -0.696293 0.0241356 0.373646 
186 1 0.655863 0.448622 0.00592502 7.41938 -3.33692 -0.4456 -0.324488 0.209676 
195 1 0.81893 0.433892 0.0494893 0.844842 -3.26502 0.556977 0.00639182 0.631133 
193 1 0.765671 0.438964 0.00682577 1.23067 -3.25762 -0.438091 -0.049445 -0.188325 
196 1 0.770064 0.488613 0.0566438 3.06316 -3.34178 -0.289719 -0.571501 -0.468675 
194 1 0.823888 0.474314 0.000182963 1.16385 -3.29622 0.214546 0.362194 0.29145 
197 1 0.877478 0.427645 0.00365245 0.631231 -3.27881 0.595916 0.452298 -0.0785428 
164 1 0.00181016 0.462438 0.0504145 1.10949 -3.20829 -0.397721 -0.872803 0.421571 
161 1 0.990632 0.4206 0.00438883 0.906211 -3.32032 0.444013 -0.492832 -0.489875 
199 1 0.936948 0.42155 0.0493753 0.28694 -3.32341 -0.249556 0.264593 0.190646 
200 1 0.879872 0.472717 0.0495627 1.17325 -3.37986 0.476958 -0.248777 0.0153296 
198 1 0.943321 0.467927 0.00654707 1.04676 -3.33032 -0.512654 -0.062942 -0.759309 
203 1 0.05586 0.500082 0.0503547 0.845139 -3.26259 0.844978 0.357782 0.731203 
208 1 0.119803 0.547097 0.0526423 2.02455 -3.3046 -0.654437 -0.596772 0.367593 
243 1 0.0605596 0.590545 0.0545233 0.576951 -3.35634 0.325061 0.0733553 0.174175 
202 1 0.0605698 0.541443 0.00541837 1.17012 -3.27443 0.490311 0.840626 -0.27034 
204 1 0.0029351 0.550052 0.0539078 0.725089 -3.29596 0.230555 -0.261897 -0.122861 
241 1 0.0113671 0.593253 0.0032081 0.531467 -3.30869 -0.0627973 0.0628975 -0.222913 
245 1 0.118858 0.593435 0.00792604 6.89017 -3.26991 -0.00954389 -0.282405 -0.16483 
212 1 0.226003 0.543857 0.0555473 7.1562 -3.20039 -0.24348 -0.544165 -0.583578 
206 1 0.172313 0.548753 0.00965946 6.36314 -3.23169 0.130317 -0.654458 -0.277523 
249 1 0.192146 0.605039 0.989771 8.05564 -3.28565 0.124597 -0.036479 -0.288924 
247 1 0.173298 0.593437 0.0606902 5.76119 -3.22873 0.709045 -0.605196 -0.743972 
251 1 0.25173 0.598346 0.034452 6.48519 -3.28267 -0.387544 0.225663 0.191334 
215 1 0.353223 0.501949 0.0422086 6.86006 -3.25604 0.0160369 -0.157853 -0.405421 
216 1 0.300577 0.549947 0.040359 7.44556 -3.30081 0.119271 -0.0378779 0.0252295 
255 1 0.360172 0.590047 0.0402911 6.64022 -3.27434 0.342085 -0.223018 -0.045749 
614 1 0.356105 0.540349 0.0895365 10.439 -3.31294 -0.16967 0.392738 0.320453 
653 1 0.304746 0.593474 0.0902351 8.62532 -3.33699 -0.150352 -0.12636 -0.143054 
220 1 0.416752 0.536104 0.043347 7.10303 -3.29902 -0.212029 0.0646481 -0.478712 
618 1 0.441942 0.548558 0.104178 6.8353 -3.29228 -0.117983 0.206742 0.279328 
259 1 0.443937 0.591687 0.0577241 7.02351 -3.23578 -0.292468 0.553298 -0.460473 
224 1 0.497947 0.545802 0.0578732 6.55669 -3.24608 -0.115974 0.345132 -0.1603 
261 1 0.499626 0.59374 0.00532648 8.0282 -3.33833 -0.0278768 0.166819 0.110813 
223 1 0.549113 0.500589 0.0591751 8.02017 -3.25908 0.109333 -0.30159 -0.541826 
228 1 0.555954 0.589899 0.0508421 0.802392 -3.32357 0.0447967 0.139597 -0.329789 
227 1 0.607053 0.542993 0.054837 0.38876 -3.32632 0.230346 0.0658723 -0.49779 
226 1 0.615409 0.585556 0.00188316 1.14364 -3.29546 -0.84903 -0.0219735 -0.00706167 
222 1 0.546636 0.543461 0.0063106 7.5809 -3.28382 0.169634 0.0680765 0.221948 
231 1 0.717952 0.534804 0.0542064 0.907873 -3.35558 0.151616 -0.305012 -0.439088 
232 1 0.672145 0.586237 0.0489062 1.63614 -3.19758 0.111812 -1.1009 0.156277 
229 1 0.66135 0.537873 0.00647427 0.653953 -3.35863 0.248109 -0.364152 -0.126322 
230 1 0.72613 0.573905 0.000232751 0.447315 -3.32292 -0.296712 0.229696 0.163373 
235 1 0.832378 0.522982 0.048298 0.575272 -3.35067 0.254826 -0.198723 -0.390461 
236 1 0.782367 0.570599 0.0479939 0.169398 -3.27268 -0.0606989 -0.119245 -0.138726 
233 1 0.772713 0.526416 0.00128002 0.476295 -3.25299 0.132336 -0.139279 0.449849 
234 1 0.83269 0.562537 0.994566 1.99289 -3.22608 1.02108 0.697132 0.928334 
239 1 0.951408 0.50625 0.0544756 2.74787 -3.25608 -0.694947 0.623939 -0.479689 
237 1 0.891538 0.515427 0.00205568 0.804292 -3.40673 -0.148514 0.0775036 0.029284 
240 1 0.894946 0.564031 0.0446754 2.41371 -3.3162 -0.111452 -0.842639 0.408086 
238 1 0.952104 0.556057 0.000972813 0.675588 -3.3172 -0.0685787 -0.624097 0.0322066 
201 1 0.00641441 0.50334 0.00103875 1.0809 -3.20489 -0.865411 0.184291 0.100143 
242 1 0.0658273 0.637474 0.00757008 6.47406 -3.27082 -0.0716125 -0.193744 -0.102422 
244 1 0.00800937 0.63916 0.0558384 1.15569 -3.24002 0.668466 0.0187195 -0.363652 
281 1 0.019119 0.684519 0.00662001 6.72118 -3.30788 -0.0973301 0.231148 -0.357242 
283 1 0.0681754 0.680848 0.054551 7.53338 -3.28155 -0.195216 0.432315 0.350994 
248 1 0.122092 0.636029 0.0545503 7.59738 -3.19975 -0.480372 -0.150753 0.246116 
252 1 0.19077 0.648083 0.0325955 5.76256 -3.25527 0.819515 0.215513 0.555667 
287 1 0.139121 0.693042 0.0390459 7.85867 -3.25307 0.663343 0.687385 0.311133 
689 1 0.195248 0.691381 0.0870683 9.68473 -3.35012 0.482583 0.105662 -0.0414588 
256 1 0.309275 0.638594 0.0332584 7.89477 -3.26367 0.0103626 0.12714 0.290326 
291 1 0.256624 0.687749 0.037271 7.16262 -3.31242 -0.292306 0.00961438 -0.296678 
295 1 0.341501 0.69293 0.0480436 7.26432 -3.2693 -0.0390029 0.497633 0.790667 
654 1 0.332266 0.652342 0.0957766 8.36486 -3.29733 0.382683 -0.133987 0.146397 
650 1 0.24903 0.640916 0.0826413 11.2014 -3.38738 -0.0206511 0.0222887 0.27262 
260 1 0.393123 0.644244 0.053534 6.39222 -3.30345 -0.0451005 0.139395 -0.0010978 
297 1 0.397065 0.697097 0.0049377 8.5296 -3.22959 0.220316 -0.627277 -0.135889 
264 1 0.457915 0.689859 0.0531349 0.892332 -3.22118 -0.451896 -0.300801 -1.32593 
258 1 0.445307 0.641555 0.00696186 6.62038 -3.29552 0.421997 0.521651 -0.127159 
263 1 0.510186 0.644889 0.0473672 3.66506 -3.3099 -0.166795 -0.839984 0.175534 
268 1 0.572257 0.679714 0.0507601 1.01028 -3.29783 -0.448875 -0.333481 0.407698 
265 1 0.564816 0.635911 0.995325 2.74123 -3.2656 -0.908272 -0.340592 0.841563 
262 1 0.510151 0.686464 0.00163269 0.717305 -3.30419 -0.119578 0.00319273 -0.384786 
267 1 0.619515 0.625332 0.0509408 1.4634 -3.22336 -0.527984 1.22782 -0.291418 
266 1 0.623327 0.671186 0.00359777 0.924685 -3.26316 0.442432 0.503977 -0.291977 
271 1 0.735047 0.618796 0.0459162 0.715248 -3.31203 -0.185327 0.0959881 0.183337 
272 1 0.681707 0.666735 0.0506357 0.452546 -3.35465 0.143008 0.0679922 0.141499 
270 1 0.731091 0.661965 0.998139 1.37944 -3.2952 0.94069 0.109492 0.284745 
269 1 0.672245 0.625571 0.00213346 0.623445 -3.23578 0.213916 -0.0510399 -0.586595 
275 1 0.84318 0.606914 0.0429222 0.974444 -3.33104 0.0986337 0.28708 0.311468 
276 1 0.790461 0.657678 0.0468623 0.743988 -3.29641 0.684012 -0.0132529 -0.394729 
273 1 0.787681 0.610657 0.996712 0.659341 -3.33804 -0.0473256 0.603412 0.0184728 
274 1 0.850383 0.651152 0.998455 0.156556 -3.32953 -0.0783133 -0.0700674 -0.127369 
277 1 0.901934 0.603604 0.997308 0.538306 -3.31343 -0.193032 0.163064 -0.0297233 
279 1 0.956963 0.596988 0.0495049 0.729609 -3.2601 -0.289119 0.336022 0.177344 
280 1 0.905864 0.647861 0.0493819 0.140642 -3.32902 0.167199 -0.101906 0.043922 
319 1 0.967495 0.689233 0.0587191 1.88595 -3.27554 -0.231093 0.0178969 -0.492077 
278 1 0.959284 0.646428 0.00196263 1.04412 -3.3365 0.184204 -0.444561 -0.0346765 
317 1 0.90892 0.691659 1.0005 0.506218 -3.29037 0.228412 -0.100841 -0.143536 
288 1 0.0961959 0.749057 0.0436997 7.72277 -3.29778 -0.180559 -0.322471 -0.198166 
725 1 0.106368 0.792106 0.0918406 8.95392 -3.30657 -0.169803 0.244701 0.131866 
284 1 0.0209586 0.733713 0.0599462 8.51289 -3.26746 0.575276 -0.62347 -0.124504 
323 1 0.0439745 0.801539 0.045576 5.97367 -3.24048 0.552677 0.120238 -0.264926 
292 1 0.207774 0.739206 0.0356639 7.20403 -3.31631 -0.279242 -0.136889 0.25192 
327 1 0.153298 0.790738 0.0379586 7.54879 -3.27406 1.08212 -0.301291 0.560799 
686 1 0.148772 0.741138 0.0895611 10.0767 -3.33057 0.371691 -0.148574 0.0578783 
693 1 0.278354 0.70202 0.0981778 7.77165 -3.26485 0.272378 -0.0576249 -0.00149053 
296 1 0.287328 0.743247 0.0503538 6.68007 -3.26736 0.276781 0.245952 -0.0392517 
294 1 0.345374 0.747573 0.00259617 8.3211 -3.27851 -0.191171 -0.270013 0.349322 
300 1 0.351412 0.79182 0.0532938 1.87294 -3.26992 0.19876 -0.473898 -0.499726 
697 1 0.347611 0.741268 0.0938945 0.858365 -3.36435 -0.334857 -0.163062 0.418219 
333 1 0.298058 0.793271 0.00312458 7.04429 -3.3242 -0.534175 0.147606 -0.0895123 
299 1 0.401648 0.736165 0.0503373 0.875906 -3.28457 0.362626 0.58879 0.045364 
304 1 0.464014 0.780802 0.049496 0.859292 -3.35921 0.0377096 -0.29814 -0.0876635 
301 1 0.458268 0.735363 -0.000229139 0.550012 -3.26906 -0.0769678 -0.135457 0.482976 
698 1 0.409281 0.779849 0.0996836 1.22382 -3.29674 -0.0207071 0.340604 -0.491752 
303 1 0.522399 0.732653 0.0489133 2.09112 -3.27734 -0.716436 -0.245092 -0.0571287 
308 1 0.583517 0.769973 0.0518345 1.00403 -3.32617 -0.128408 -0.0563614 -0.250075 
302 1 0.519728 0.768822 0.998402 2.14384 -3.28688 0.564817 0.694834 0.12421 
305 1 0.574849 0.719453 0.00387223 1.39585 -3.28211 0.0940192 0.711592 -0.622727 
705 1 0.567577 0.72728 0.0983178 1.60283 -3.3583 0.633436 -0.473562 0.393501 
702 1 0.522438 0.779346 0.097978 1.19769 -3.26855 -0.0499916 -0.433652 -0.261564 
311 1 0.744927 0.707461 0.0528224 1.11835 -3.29486 -0.155028 -0.0734724 -0.605167 
307 1 0.633447 0.716103 0.0503648 0.517788 -3.28524 -0.220163 0.285928 0.175038 
309 1 0.689449 0.71107 0.000355955 0.493237 -3.31602 -0.356697 0.192018 0.360749 
312 1 0.695564 0.755377 0.0508798 0.176099 -3.29222 -0.0417723 0.292128 -0.15841 
306 1 0.638272 0.757846 0.00468239 1.35498 -3.33868 -0.199908 0.583056 -0.410238 
310 1 0.752985 0.748439 0.00142003 0.917012 -3.31224 -0.357875 0.333565 0.0477861 
351 1 0.757214 0.798503 0.0514295 0.648771 -3.35827 0.0557832 -0.111669 -0.168229 
315 1 0.852278 0.695411 0.0475825 0.547236 -3.34057 0.173668 0.208628 0.210301 
316 1 0.803474 0.745497 0.0479393 0.678739 -3.34199 0.493074 0.186968 0.269953 
313 1 0.799641 0.698036 0.996432 1.4305 -3.30221 -0.228972 0.427525 0.6958 
355 1 0.864558 0.7845 0.0528054 1.10823 -3.39005 0.555169 0.040167 -0.127658 
353 1 0.810092 0.791667 0.000845668 0.733903 -3.28788 0.46733 -0.273304 0.245625 
314 1 0.863681 0.740343 0.00120932 0.395001 -3.31333 -0.286316 0.292806 0.175632 
320 1 0.917781 0.7336 0.0492086 2.09018 -3.3019 -0.50244 0.513351 0.468296 
359 1 0.973912 0.77526 0.0528875 2.91568 -3.23493 -0.438633 0.693609 0.148499 
357 1 0.926941 0.784336 0.00238862 2.75782 -3.28666 -0.301818 -0.525703 -0.0869183 
318 1 0.969431 0.73125 0.00226108 1.63271 -3.2904 0.215765 -0.105518 -0.152898 
328 1 0.111764 0.841989 0.040778 7.90089 -3.27677 -0.734601 -0.0544629 0.283854 
363 1 0.0531534 0.894316 0.0409736 7.99773 -3.28331 0.808377 -0.155959 0.391645 
722 1 0.0539446 0.842689 0.0940811 9.25977 -3.35668 0.370702 0.285489 -0.065564 
324 1 0.000270449 0.854964 0.0454373 3.83197 -3.25622 -0.52783 -0.0321419 -0.0776968 
761 1 0.00422484 0.893931 0.0992648 7.90281 -3.30582 0.42279 0.328372 -0.601032 
729 1 0.186611 0.802599 0.104662 8.27605 -3.26458 -0.570947 0.00529055 -0.291923 
331 1 0.234215 0.797576 0.0538647 7.11551 -3.28835 -0.0286105 -0.0403504 -0.754101 
332 1 0.186026 0.848799 0.0527196 7.73006 -3.26771 0.258883 -0.111056 0.215337 
726 1 0.138589 0.851127 0.105432 7.66244 -3.30432 -0.648086 0.121938 -0.38841 
336 1 0.250734 0.888602 0.0515698 0.265346 -3.30571 0.303608 0.0851759 -0.0104533 
733 1 0.245955 0.842096 0.0976379 0.508325 -3.2989 0.0723101 0.150143 0.26046 
330 1 0.240211 0.844899 0.00656345 6.72676 -3.27782 0.384103 -0.101887 -0.378106 
335 1 0.29819 0.838138 0.0472974 1.07542 -3.31495 0.327426 0.182342 0.346132 
340 1 0.363303 0.875625 0.0495925 0.781942 -3.32428 -0.338456 0.51705 -0.321716 
337 1 0.354016 0.836457 0.997526 0.902205 -3.26183 0.831633 -0.0828615 0.468473 
694 1 0.292838 0.790042 0.0923896 1.83526 -3.2723 0.193411 0.0641323 0.658463 
734 1 0.308589 0.881497 0.10114 0.501937 -3.35062 -0.412393 0.138627 -0.302482 
737 1 0.358675 0.831777 0.10042 1.18728 -3.26414 0.110789 0.399811 -0.395977 
339 1 0.410142 0.830157 0.0466832 0.74869 -3.29722 0.464326 -0.129808 0.0856361 
344 1 0.472295 0.868568 0.0471541 0.652976 -3.34332 0.444298 -0.0997141 -0.242356 
738 1 0.417899 0.874658 0.0945039 0.454015 -3.32178 0.0278596 -0.072653 0.509728 
343 1 0.526091 0.817693 0.0477029 0.419133 -3.36603 0.192414 0.122 -0.410364 
348 1 0.595196 0.858191 0.0437525 0.931302 -3.29928 -0.390723 -0.371845 0.739422 
742 1 0.531597 0.862768 0.0936986 0.43222 -3.32606 0.0085177 0.343967 -0.254531 
745 1 0.586072 0.817805 0.0943782 0.719924 -3.33852 0.104377 -0.112186 0.00365962 
347 1 0.647151 0.80665 0.0477816 0.638028 -3.30713 -0.514749 -0.177176 0.381493 
352 1 0.702184 0.846218 0.0466463 1.16319 -3.32629 0.562101 0.102692 0.0614092 
746 1 0.649938 0.854671 0.0987719 1.18715 -3.32492 -0.358698 -0.0299613 -0.724012 
750 1 0.76116 0.842907 0.0966529 0.333215 -3.31323 0.251198 -0.185918 -0.481792 
389 1 0.7126 0.886945 0.998481 0.589106 -3.37223 0.22895 0.267115 0.00467753 
356 1 0.823584 0.837471 0.0501802 0.640721 -3.36222 -0.242359 -0.211645 0.175781 
354 1 0.875795 0.826335 1.00057 1.15228 -3.29092 -0.0795851 0.499711 0.184563 
391 1 0.771915 0.886159 0.0481391 0.351598 -3.35911 -0.195645 -0.0734145 0.213517 
350 1 0.768028 0.840477 -0.000597074 0.801715 -3.32503 -0.79953 0.299575 0.251548 
393 1 0.827975 0.876328 1.00158 1.51271 -3.25616 0.250993 0.632278 -0.0797795 
395 1 0.886783 0.879026 0.0479235 1.08271 -3.28982 -0.384031 -0.321118 -0.269785 
360 1 0.931732 0.82827 0.0531016 1.99736 -3.31091 -0.299998 -0.50662 -0.176168 
358 1 0.939148 0.86224 0.999078 1.26669 -3.3818 0.255492 0.257341 -0.262819 
765 1 0.0881235 0.903724 0.10613 7.06529 -3.30788 -0.207844 -0.28695 -0.4283 
368 1 0.0916201 0.948395 0.0559972 6.47959 -3.32955 -0.0207579 -0.0673097 0.373099 
762 1 0.039191 0.950149 0.107894 6.67375 -3.26857 0.48636 0.241772 -0.606885 
364 1 0.0104143 0.944768 0.0456347 6.5264 -3.23596 0.560056 0.409794 -0.217042 
766 1 0.103721 0.992787 0.105428 0.420081 -3.31763 -0.145564 0.0768421 -0.0470325 
371 1 0.202813 0.938361 0.0550142 0.337202 -3.30693 -0.103892 0.0407844 -0.341931 
367 1 0.137846 0.897569 0.0561135 7.95021 -3.34924 0.0982959 0.320501 -0.0718488 
372 1 0.156306 0.989927 0.0581377 0.621236 -3.24797 -0.208455 -0.21241 -0.257193 
730 1 0.200016 0.891941 0.100899 0.518123 -3.29674 -0.347021 0.234006 0.11683 