ITEM: TIMESTEP
1250
ITEM: NUMBER OF ATOMS
4000
ITEM: BOX BOUNDS pp pp pp
1.7898854052960964e-01 4.0321011459469823e+01
-1.6845287711793383e-01 4.0668452877117296e+01
-1.6972326081374198e-01 4.0669723260813150e+01
ITEM: ATOMS id type xs ys zs c_csym c_peratom fx fy fz 
4 1 0.000665043 0.0536562 0.0470435 1.38997 -3.31244 -0.0794701 -0.493426 0.391428 
8 1 0.0979377 0.0421759 0.0495979 1.69392 -3.34558 0.238172 0.881896 -0.0828302 
43 1 0.0507614 0.0999742 0.0493246 0.269802 -3.38552 0.26408 0.0174794 0.135569 
402 1 0.0451126 0.0492263 0.0988538 0.794109 -3.30783 0.273168 0.052689 0.0746726 
405 1 0.0943377 -0.000285458 0.100419 1.04827 -3.29058 0.515018 -0.183422 0.0317911 
445 1 0.097596 0.0955599 0.102126 1.03144 -3.30539 0.450132 0.340056 -0.676981 
441 1 0.00126701 0.101444 0.101995 0.243208 -3.29383 -0.105664 -0.154564 -0.246058 
12 1 0.196907 0.0536695 0.0495311 1.5928 -3.31529 0.298216 -0.682985 -0.296858 
47 1 0.144332 0.0977535 0.0511414 1.47188 -3.35165 0.03473 -0.0453612 -0.12266 
406 1 0.150681 0.0427273 0.0989926 2.07619 -3.27885 -0.477929 0.917769 -0.264603 
449 1 0.198506 0.102292 0.0942203 1.66827 -3.26798 0.19912 -0.447529 0.442307 
16 1 0.29832 0.0478064 0.0497013 0.472933 -3.3521 0.334457 0.234114 -0.19071 
51 1 0.247368 0.0982479 0.0447969 0.876646 -3.34535 0.347221 0.250692 0.276549 
410 1 0.248662 0.0513194 0.0994751 0.183086 -3.37466 -0.16442 -0.0305952 -0.00352979 
453 1 0.298918 0.0978644 0.0992005 0.486413 -3.37008 -0.205044 0.43573 -0.087763 
11 1 0.249114 -0.0015495 0.0494111 0.317344 -3.34686 -0.233654 0.297492 -0.155505 
413 1 0.299331 0.00291513 0.0996988 0.466543 -3.31832 0.253126 -0.00242107 0.086123 
53 1 0.299091 0.0979068 -0.00115323 0.432392 -3.35886 0.10909 0.184893 0.051675 
20 1 0.400299 0.0489909 0.0498108 0.2341 -3.29614 0.0704199 0.0988787 -0.0117811 
55 1 0.34901 0.0986321 0.0490418 0.326988 -3.33477 -0.116188 -0.0376783 0.0789504 
414 1 0.35207 0.0514814 0.101908 0.940985 -3.26703 -0.366747 -0.742685 -0.775062 
457 1 0.39867 0.101775 0.0983587 0.512351 -3.34992 0.383398 0.0642128 0.0405179 
417 1 0.402613 0.00163253 0.097977 0.545759 -3.32304 -0.442005 -0.513866 -0.0117149 
24 1 0.501611 0.0497122 0.0519482 0.54185 -3.36373 -0.0846377 0.0847165 -0.365828 
59 1 0.450193 0.097229 0.0490677 0.450358 -3.34202 0.172622 0.299837 0.214499 
63 1 0.552268 0.0980818 0.0500218 0.180702 -3.36519 -0.104504 -0.0524687 0.0202779 
418 1 0.448569 0.0501226 0.0986598 0.200028 -3.30576 0.43855 0.145307 -0.171076 
422 1 0.549662 0.0460903 0.101299 1.02464 -3.28591 0.425321 0.485235 -0.523407 
461 1 0.498946 0.101774 0.101695 0.617733 -3.33994 0.137852 -0.0677897 -0.454211 
28 1 0.60472 0.0505814 0.0489136 0.542836 -3.3315 -0.354853 -0.21165 -0.0271569 
65 1 0.602329 0.100372 -0.00038342 0.137477 -3.33463 -0.0748163 -0.0551685 -0.0119071 
67 1 0.653462 0.100934 0.04816 0.273665 -3.37767 0.00208727 0.118958 0.00240512 
426 1 0.655103 0.0494644 0.0954591 1.16588 -3.3516 -0.249132 0.351634 0.518652 
465 1 0.600731 0.0994878 0.0995498 0.24217 -3.36484 0.265501 0.0859477 -0.203768 
26 1 0.6536 0.050796 -0.00140233 0.306765 -3.29445 -0.371568 0.299582 -0.216928 
25 1 0.603307 -0.000268569 -0.000334789 0.499724 -3.35658 -0.058404 0.0558184 -0.0319379 
30 1 0.750043 0.0481218 0.000285316 0.77131 -3.31572 -0.0266731 0.580098 -0.27233 
32 1 0.699842 0.0474945 0.0441391 1.61 -3.26037 0.429784 0.438195 0.74776 
71 1 0.749386 0.0998761 0.0499243 0.339594 -3.35485 -0.0894471 0.26611 -0.307589 
430 1 0.749474 0.0512407 0.101101 0.338312 -3.31083 -0.480635 -0.345211 -0.341274 
469 1 0.701169 0.105236 0.0988037 0.958154 -3.29077 -0.271637 -0.825283 0.087885 
429 1 0.701661 0.000720906 0.10048 0.390425 -3.35 0.124537 -0.114695 0.0527021 
36 1 0.796209 0.0520718 0.0509219 0.529143 -3.3102 0.378953 -0.392143 -0.248603 
75 1 0.846812 0.101143 0.0514237 0.572007 -3.33139 0.302514 -0.0345481 0.245798 
434 1 0.846817 0.0509459 0.10092 0.244756 -3.31408 0.252076 -0.112788 -0.0766292 
473 1 0.796551 0.0980307 0.100125 0.591713 -3.31397 0.271888 0.760639 0.163185 
38 1 0.948568 0.0502953 0.00480298 0.633128 -3.33466 -0.0683821 -0.238856 -0.194683 
40 1 0.89726 0.0518039 0.053297 0.498817 -3.31244 0.15144 -0.567119 -0.0360077 
79 1 0.951617 0.10073 0.0506678 0.430972 -3.34219 0.00353334 0.142199 0.274906 
438 1 0.952624 0.0524107 0.101464 0.918159 -3.32809 -0.36264 -0.242055 -0.0872334 
477 1 0.901252 0.0961304 0.101321 0.789316 -3.33185 -0.0867409 0.652958 0.174556 
77 1 0.898846 0.0992528 0.00685504 1.26611 -3.31244 0.0502972 0.2114 -0.465938 
48 1 0.10471 0.152187 0.0498983 1.31988 -3.26285 -0.302116 -0.357879 0.512353 
83 1 0.0518876 0.198769 0.0546449 0.72152 -3.32592 -0.0653624 0.0505576 -0.545798 
85 1 0.102867 0.201505 0.0030471 0.357724 -3.29986 -0.244448 0.253569 -0.210267 
442 1 0.0511657 0.148101 0.102918 0.420644 -3.30331 0.124911 0.289249 -0.465307 
481 1 3.34077e-05 0.19867 0.099268 0.390555 -3.31344 -0.146881 0.165641 0.26878 
485 1 0.10264 0.197267 0.0988816 0.799162 -3.36284 0.0709332 0.228529 0.479995 
44 1 0.000955774 0.151537 0.0512742 0.522375 -3.33918 0.266522 -0.401781 -0.148774 
81 1 0.00115958 0.201834 -0.000584523 0.531491 -3.3186 0.0838255 -0.257358 -0.106775 
42 1 0.0561038 0.150761 0.00399994 1.74005 -3.32024 -0.904586 0.122025 -0.329866 
52 1 0.198216 0.151254 0.0458383 0.675101 -3.32713 -0.0872025 -0.135854 0.265297 
87 1 0.154251 0.204715 0.0485599 1.51595 -3.27299 -0.606696 -0.695082 0.216922 
446 1 0.15105 0.146728 0.101383 0.895793 -3.3015 -0.55555 0.406634 -0.412892 
489 1 0.199763 0.19808 0.0998173 0.40075 -3.3127 -0.260782 0.279025 -0.0791774 
56 1 0.30025 0.153234 0.0497464 0.809114 -3.27862 -0.468203 -0.669337 0.186049 
91 1 0.249368 0.198589 0.0486832 0.38833 -3.339 0.0402256 0.298352 0.0517558 
93 1 0.300178 0.19899 0.00186099 0.387715 -3.32813 0.235526 0.104164 -0.141854 
450 1 0.246182 0.149961 0.0980521 0.451808 -3.35584 0.668347 -0.246861 -0.0225511 
493 1 0.303123 0.200886 0.0984308 0.735905 -3.30472 -0.410767 -0.379969 0.343322 
50 1 0.249551 0.149848 -0.000450312 0.294144 -3.31271 0.331419 -0.0751936 0.0445654 
54 1 0.34651 0.148863 0.00321384 1.63065 -3.33924 0.603373 0.138079 -0.478735 
60 1 0.399175 0.148704 0.0479436 0.456942 -3.36051 0.13621 0.214257 0.0569211 
95 1 0.353642 0.202906 0.0506752 0.867252 -3.3172 -0.064951 -0.288895 -0.257425 
454 1 0.348862 0.150793 0.0949001 1.02576 -3.30474 0.155025 -0.198416 0.7084 
497 1 0.400752 0.201575 0.100597 0.348634 -3.34951 0.0542081 -0.162293 -0.0190419 
64 1 0.499666 0.148623 0.0500473 0.267105 -3.30806 0.222237 -0.0639345 0.27389 
99 1 0.449796 0.197934 0.0500137 0.534683 -3.31092 -0.26873 0.486977 0.078489 
103 1 0.548708 0.195489 0.0508525 1.13271 -3.35763 -0.0427158 0.311898 -0.166971 
458 1 0.449214 0.152096 0.099505 0.353205 -3.33284 -0.346257 -0.524245 0.107824 
462 1 0.551131 0.149242 0.0989155 0.388772 -3.34371 -0.125131 -0.0230572 0.0611425 
501 1 0.492545 0.201936 0.102491 2.74022 -3.27018 0.822352 0.34177 -0.515382 
68 1 0.603034 0.149187 0.0491642 0.40102 -3.36238 -0.10309 0.0587856 0.131357 
107 1 0.64856 0.201075 0.0490132 0.680305 -3.31901 0.207688 -0.291829 0.102451 
466 1 0.652322 0.152102 0.102098 0.555033 -3.32758 -0.68403 0.000318239 -0.543721 
505 1 0.599179 0.200996 0.10041 0.311715 -3.30077 0.0656534 -0.23077 -0.0271081 
72 1 0.700826 0.151773 0.0502835 0.413866 -3.29504 -0.100895 -0.145261 -0.448949 
109 1 0.697541 0.201362 0.00534568 2.10776 -3.31696 0.639174 0.113336 -0.644776 
111 1 0.751423 0.201926 0.0524272 0.313081 -3.3311 0.414705 0.0359487 -0.614589 
470 1 0.74931 0.151646 0.0988186 0.408616 -3.28878 0.696964 -0.24831 0.297608 
509 1 0.703764 0.199118 0.0976385 0.872181 -3.2248 -0.630445 0.352639 0.313087 
74 1 0.847103 0.151537 0.00288118 1.01332 -3.29007 0.500365 0.197429 0.384923 
76 1 0.802719 0.152654 0.0533228 0.665072 -3.34857 -0.265753 -0.0550432 -0.0486689 
115 1 0.853763 0.201924 0.0549661 0.698364 -3.36149 -0.315428 -0.175661 -0.417236 
474 1 0.851899 0.148435 0.104252 0.264484 -3.34739 -0.044271 -0.0392908 -0.452085 
513 1 0.802714 0.199677 0.103003 0.162241 -3.36563 -0.00265297 -0.106044 -0.0686075 
78 1 0.954696 0.147869 0.000898295 1.03706 -3.32122 -0.458874 0.225642 0.0580049 
80 1 0.902222 0.150335 0.0522402 0.317882 -3.37831 -0.00934846 0.00991762 0.0113536 
117 1 0.89979 0.198911 -0.000450954 0.646721 -3.3878 0.0904279 0.0926859 0.369397 
119 1 0.954621 0.200365 0.0469918 1.18721 -3.30849 -0.721887 0.0567296 0.223578 
478 1 0.95289 0.148119 0.105474 0.917552 -3.34267 -0.62756 0.137143 -0.489118 
517 1 0.903323 0.19886 0.101038 0.697349 -3.347 0.0108851 -0.054193 0.0984401 
82 1 0.0505465 0.248825 0.000820303 0.300101 -3.34093 -0.321893 0.253414 0.161145 
88 1 0.0994303 0.251293 0.0530259 0.323043 -3.36639 0.011127 -0.0428981 -0.167357 
123 1 0.0465661 0.300232 0.0521804 0.603534 -3.29814 0.17147 -0.0293645 -0.509394 
482 1 0.0519484 0.246925 0.102117 0.837265 -3.29987 -0.268093 0.293739 -0.185989 
525 1 0.0960425 0.3044 0.0983377 1.49184 -3.28043 0.0820543 -0.546676 0.159563 
86 1 0.149683 0.252439 0.00090463 0.200583 -3.33402 0.0270143 -0.16693 -0.0943464 
92 1 0.198383 0.249782 0.052304 0.833455 -3.28109 0.613617 0.486847 -0.376574 
127 1 0.147017 0.30205 0.0482637 0.390762 -3.30551 0.105427 -0.241433 0.032154 
486 1 0.150238 0.249766 0.10163 0.400761 -3.36115 -0.167516 0.00530587 -0.00702566 
529 1 0.198839 0.301379 0.0963706 0.989209 -3.33206 0.203369 -0.160302 0.615626 
90 1 0.25198 0.249697 -0.00404689 1.39736 -3.32643 -0.185781 0.217747 0.7597 
96 1 0.303928 0.250288 0.0496357 0.387188 -3.26998 -0.396272 -0.118376 -0.287503 
131 1 0.25076 0.29583 0.0498508 0.788098 -3.35298 -0.069264 0.285806 -0.173364 
490 1 0.25297 0.246693 0.0958286 1.2261 -3.30567 -0.327288 0.212842 0.43106 
533 1 0.299388 0.298574 0.0990363 0.496897 -3.34057 0.192896 0.395485 0.247974 
94 1 0.353319 0.250653 0.0021701 0.352776 -3.34198 -0.142283 0.101088 -0.233559 
100 1 0.400529 0.252217 0.0531669 0.616741 -3.3374 0.141903 0.00583146 -0.33362 
135 1 0.353454 0.299962 0.051109 0.430178 -3.33692 0.139722 0.407691 0.0328947 
137 1 0.403972 0.304132 -0.000121244 0.887873 -3.31749 -0.526653 -0.508671 -0.0691722 
494 1 0.347216 0.251135 0.101487 1.13497 -3.31126 0.63783 0.0771025 0.285795 
537 1 0.402326 0.306619 0.100855 1.28437 -3.28391 -0.400479 -0.585662 -0.282829 
98 1 0.448708 0.248283 0.000383644 0.533045 -3.3368 -0.0982394 0.361374 -0.128663 
104 1 0.499368 0.248224 0.0436056 1.84235 -3.30373 -0.0599522 0.184362 0.80562 
139 1 0.451091 0.302426 0.0486739 0.348866 -3.30815 -0.00309976 -0.244615 0.00377443 
143 1 0.55219 0.301925 0.0501474 0.796252 -3.32995 -0.15573 -0.181722 -0.0488059 
498 1 0.447672 0.252607 0.0995065 0.56233 -3.30419 0.309026 -0.0406886 0.0343812 
502 1 0.548793 0.246416 0.094881 1.72445 -3.35394 -0.252096 0.27649 0.555186 
541 1 0.499983 0.296193 0.093719 2.07776 -3.334 0.324481 0.3983 0.611594 
108 1 0.601728 0.247964 0.0513869 0.541887 -3.26773 -0.11057 0.248028 -0.0286215 
147 1 0.64887 0.301233 0.0466383 1.61475 -3.27926 0.513198 -0.268235 1.25603 
506 1 0.650993 0.244673 0.0986841 1.6032 -3.32188 0.0936099 0.909272 0.0952114 
545 1 0.598705 0.296978 0.101369 1.00298 -3.34037 0.51798 0.136857 -0.395682 
110 1 0.754702 0.251152 -0.000474775 0.664343 -3.31925 -0.699627 0.445157 0.368358 
112 1 0.702986 0.253884 0.0496196 0.679848 -3.33349 -0.0989004 -0.10229 0.180838 
151 1 0.756895 0.302605 0.0526242 0.821403 -3.33626 -0.428241 -0.170396 -0.213515 
510 1 0.749551 0.248828 0.0991854 0.901524 -3.30734 0.457568 0.293391 0.363193 
549 1 0.704351 0.300053 0.102088 0.653618 -3.33717 -0.570944 0.123364 -0.356508 
116 1 0.805012 0.252101 0.0545867 0.878289 -3.34004 -0.251523 -0.349081 -0.335697 
155 1 0.84989 0.303195 0.0500748 0.829886 -3.31239 0.101771 -0.22516 0.336628 
514 1 0.851816 0.252028 0.106207 0.766746 -3.23226 0.361464 -0.458026 -0.768577 
553 1 0.803536 0.298433 0.103541 0.43939 -3.28435 -0.164661 0.443789 0.11208 
114 1 0.851327 0.250742 0.000545535 0.161993 -3.35683 0.0958662 -0.211131 0.144626 
84 1 1.00171 0.250385 0.0497031 0.285398 -3.34025 -0.235711 -0.0940368 -0.235636 
521 1 0.998245 0.295521 0.098991 0.875397 -3.29053 0.084474 0.42308 0.349098 
120 1 0.898919 0.252412 0.0537216 0.702524 -3.32152 -0.0319653 -0.19105 -0.357864 
159 1 0.948668 0.301939 0.0498805 0.397007 -3.2723 0.0853877 -0.636464 -0.0974706 
518 1 0.948602 0.249577 0.0967785 0.914757 -3.30967 0.143252 -0.131026 0.437495 
557 1 0.897262 0.301873 0.104778 0.878453 -3.34268 0.0782268 -0.0420834 -0.309801 
157 1 0.899369 0.29973 0.00406009 0.826158 -3.2866 -0.0729768 -0.0458028 -0.566259 
122 1 0.0457571 0.349733 -0.000320269 0.587387 -3.31539 0.189368 0.207658 0.106466 
128 1 0.0962105 0.35406 0.0457306 1.74681 -3.27891 0.0943589 -0.661467 0.792446 
163 1 0.0503708 0.403225 0.0544861 1.84195 -3.32699 -0.712052 -0.497542 -0.3301 
522 1 0.0433448 0.347193 0.0994219 1.73025 -3.32937 0.170687 0.617252 0.173063 
565 1 0.0979163 0.398784 0.102656 0.566993 -3.33107 0.0174724 -0.167941 -0.0663143 
132 1 0.202705 0.348014 0.048835 0.535554 -3.32213 -0.4513 0.299966 0.0818085 
167 1 0.149152 0.400354 0.0493273 0.2261 -3.37234 0.134718 -0.105418 0.134269 
526 1 0.146361 0.345999 0.0966174 1.3625 -3.31332 0.486189 0.88262 0.470919 
569 1 0.199596 0.401634 0.0969513 1.17245 -3.33385 -0.273787 -0.430114 0.535211 
130 1 0.253158 0.347576 0.00274648 0.461973 -3.28574 -0.229203 0.431719 -0.093261 
136 1 0.306274 0.34867 0.0491137 1.03218 -3.33005 -0.239816 0.350256 0.512438 
171 1 0.251686 0.396766 0.050847 0.227678 -3.31736 0.140545 0.130191 -0.0598438 
173 1 0.304498 0.396993 0.00020795 0.649786 -3.33039 -0.291107 0.378414 0.183579 
530 1 0.25054 0.350386 0.0993336 0.329908 -3.35405 0.0411393 -0.294346 0.0641331 
573 1 0.300767 0.398193 0.101114 0.331032 -3.3139 -0.0236854 0.134326 -0.117009 
140 1 0.404494 0.353484 0.0479022 0.591672 -3.33091 -0.355553 -0.0855288 0.249095 
175 1 0.354704 0.399684 0.0541045 1.09565 -3.35345 -0.542312 -0.088118 -0.39001 
534 1 0.350722 0.350135 0.10511 1.16943 -3.36668 -0.0297145 0.0334819 -0.52439 
577 1 0.404206 0.401268 0.0999734 0.522429 -3.27052 -0.423785 -0.245978 -0.482468 
138 1 0.451678 0.350557 -0.000998877 0.27257 -3.3452 0.198457 0.569901 -0.2581 
144 1 0.503138 0.354147 0.0481791 0.669432 -3.35761 -0.08682 -0.211688 0.180505 
179 1 0.452025 0.404897 0.0481592 0.533695 -3.37174 0.0838414 -0.265099 -0.273669 
183 1 0.553934 0.40207 0.0498378 0.301846 -3.28191 -0.47493 -0.444992 -0.269744 
538 1 0.452579 0.350007 0.0988599 0.456904 -3.32425 0.131503 0.15164 -0.179619 
542 1 0.554498 0.350209 0.0986248 0.768464 -3.32212 -0.556967 -0.0854253 -0.0648162 
581 1 0.499634 0.39936 0.0995802 0.480814 -3.31466 0.149615 0.0964106 -0.248489 
148 1 0.602718 0.35067 0.0500228 0.334883 -3.32227 -0.167999 -0.0864629 -0.102102 
187 1 0.648682 0.400991 0.0496594 0.414822 -3.30737 0.304879 -0.355833 0.137875 
546 1 0.649344 0.350027 0.101349 0.38716 -3.3787 0.32813 -0.326582 -0.418347 
585 1 0.599468 0.40144 0.099032 0.319582 -3.29791 0.549451 -0.110325 0.0869613 
185 1 0.602154 0.400968 -0.00166162 0.318849 -3.33572 -0.273868 -0.249579 0.161661 
150 1 0.755372 0.352003 -0.00428464 1.37234 -3.31906 -0.30097 -0.10142 0.894639 
152 1 0.704056 0.350341 0.0483989 0.694942 -3.35517 -0.219831 0.0680824 0.397371 
189 1 0.699767 0.397277 -0.00422175 1.10704 -3.32091 -0.0693029 0.0950526 0.450019 
191 1 0.748229 0.401891 0.0493424 1.14318 -3.31516 0.739119 -0.385708 -0.099754 
550 1 0.75334 0.349163 0.10727 1.30254 -3.31455 -0.158268 -0.146771 -0.607623 
589 1 0.700373 0.398795 0.0993945 0.437713 -3.34385 0.0419976 -0.0125322 0.196853 
156 1 0.802626 0.349967 0.056016 1.24648 -3.29969 -0.309778 0.454804 -0.548576 
195 1 0.847717 0.400701 0.0530238 0.851103 -3.33945 0.294148 -0.0976932 -0.305 
554 1 0.850547 0.351898 0.105185 0.615276 -3.33949 -0.0386185 -0.179369 -0.122564 
593 1 0.796271 0.400763 0.103339 1.03807 -3.2693 0.864932 -0.291625 -0.236556 
154 1 0.854501 0.352415 0.00151217 1.11217 -3.29904 -0.953287 -0.19072 0.0241489 
124 1 0.995626 0.349811 0.046941 0.820069 -3.30327 0.555644 0.399176 0.218029 
161 1 1.00034 0.401141 -0.00346153 0.837257 -3.36139 -0.531753 -0.0511795 0.530557 
561 1 0.996302 0.401263 0.104059 1.23188 -3.33222 0.145613 -0.17425 -0.709043 
160 1 0.900814 0.350657 0.050543 0.27187 -3.269 -0.216061 0.212218 -0.0280868 
199 1 0.951054 0.404533 0.0496165 0.89396 -3.37216 -0.0103717 -0.206241 -0.0781264 
558 1 0.949448 0.349717 0.0955302 1.5659 -3.27735 0.250563 0.196492 0.947985 
597 1 0.899545 0.397725 0.0984976 1.06214 -3.36204 0.0983428 0.631243 0.403789 
197 1 0.899435 0.400598 -0.00260054 0.813623 -3.3209 -0.0110721 0.440004 0.63843 
168 1 0.0966811 0.451578 0.0478217 1.25608 -3.29168 0.613666 -0.131163 0.548706 
203 1 0.04864 0.501857 0.0544837 0.967759 -3.24796 0.283599 0.014808 -0.807422 
208 1 0.0966397 0.550277 0.0546595 0.827423 -3.35089 0.266089 0.0610057 -0.373164 
562 1 0.0499472 0.450612 0.101791 0.474486 -3.31297 -0.0990262 0.00953536 0.147073 
601 1 0.00103594 0.502505 0.100155 0.782025 -3.28854 -0.548545 -0.288567 0.57887 
602 1 0.0486523 0.549754 0.105271 0.554699 -3.31151 0.149203 0.17035 -0.118323 
605 1 0.0988076 0.499455 0.0988883 0.88266 -3.33502 0.177443 0.10511 0.555475 
202 1 0.0473769 0.549201 -0.000638483 0.517023 -3.38769 0.366886 -0.207413 0.110706 
172 1 0.199929 0.447778 0.0483838 0.597285 -3.312 -0.0282932 -0.096672 0.159684 
207 1 0.15147 0.499032 0.0514531 0.77735 -3.30545 -0.386608 -0.351917 -0.0642202 
212 1 0.1969 0.546972 0.0486748 0.75065 -3.29164 0.437056 0.415444 0.146657 
566 1 0.14419 0.447652 0.10292 1.41009 -3.34512 0.419257 0.256101 -0.238332 
606 1 0.15192 0.54912 0.0992902 1.03904 -3.30696 -0.590227 -0.16597 0.0990606 
609 1 0.20059 0.493291 0.0998274 1.82363 -3.30185 -0.52146 0.442113 0.346783 
166 1 0.152688 0.450635 0.000285191 0.665543 -3.32581 -0.502126 -0.757301 0.0278572 
170 1 0.251414 0.4426 0.00268897 1.84794 -3.34661 0.184274 0.606069 -0.141572 
176 1 0.299796 0.448847 0.0557676 0.882376 -3.37018 -0.0178176 0.0128409 -0.561225 
211 1 0.24351 0.50026 0.0494409 1.71293 -3.30223 0.818695 -0.21733 0.0950142 
216 1 0.300874 0.548863 0.0509923 0.39079 -3.32979 -0.465581 -0.12487 0.017771 
570 1 0.248536 0.447525 0.103119 0.523354 -3.32424 0.215376 -0.035491 -0.0990202 
610 1 0.247924 0.549493 0.102746 0.468569 -3.37606 -0.186198 -0.180571 -0.296547 
613 1 0.296513 0.499064 0.102612 0.53223 -3.33332 0.00571674 0.0428812 -0.348774 
174 1 0.348971 0.450291 -0.000223455 0.46627 -3.34509 -0.133995 -0.0440278 0.102716 
180 1 0.398636 0.449984 0.0456236 1.15665 -3.30068 0.209223 0.29759 0.528864 
215 1 0.34775 0.499105 0.0497658 0.289211 -3.36184 0.0734062 -0.197507 0.0365024 
220 1 0.398669 0.549157 0.0468594 0.562482 -3.2885 0.0620762 0.326142 0.292309 
574 1 0.351768 0.449186 0.102767 0.498789 -3.30064 -0.299014 0.166918 -0.48381 
614 1 0.351661 0.547911 0.0980957 0.553517 -3.32823 0.062797 0.238549 0.286186 
617 1 0.399999 0.496144 0.0992851 0.67074 -3.34537 -0.0629228 0.550656 -0.108929 
214 1 0.349284 0.550033 0.00104165 0.551076 -3.3008 -0.23518 -0.236823 -0.367245 
184 1 0.503448 0.44928 0.0502609 0.685023 -3.34881 -0.0894167 0.161341 -0.33192 
219 1 0.450324 0.499149 0.0496964 0.459414 -3.285 0.0185368 -0.152703 -0.130612 
221 1 0.502064 0.499408 -0.00143915 0.428833 -3.31117 -0.403562 0.27679 0.121736 
223 1 0.553116 0.50231 0.0468258 0.864157 -3.3463 -0.248278 0.0792462 0.706949 
224 1 0.49905 0.548408 0.0494162 0.33122 -3.32138 0.354661 0.00171009 -0.177172 
578 1 0.450968 0.45271 0.0980119 0.618711 -3.30839 0.135869 -0.322409 0.0516582 
582 1 0.553713 0.449578 0.100407 0.568265 -3.29769 -0.417942 0.277135 -0.365025 
618 1 0.44413 0.549011 0.0951089 1.98166 -3.30381 0.180445 0.0262122 0.430723 
621 1 0.500299 0.498923 0.0963383 0.484911 -3.3192 0.194422 0.0579433 0.146348 
622 1 0.55055 0.551431 0.104529 1.84972 -3.29973 0.208125 -0.641005 -0.679208 
188 1 0.598026 0.449472 0.0488243 1.02288 -3.2898 0.699005 0.45547 0.212274 
227 1 0.6509 0.501561 0.0524001 0.727413 -3.30067 0.529495 -0.487503 -0.322698 
228 1 0.604549 0.548887 0.0497163 0.660249 -3.31356 -0.771033 0.349183 -0.0772753 
586 1 0.65213 0.452901 0.0993629 0.452979 -3.32068 -0.00869034 -0.450822 -0.272442 
625 1 0.60366 0.500761 0.101436 0.522352 -3.30976 -0.83359 -0.0316086 -0.319698 
626 1 0.64844 0.54989 0.100035 0.477306 -3.28137 0.519615 0.257146 0.0919942 
186 1 0.652815 0.447618 0.00233573 0.8145 -3.35166 -0.0352069 0.586453 -0.339111 
192 1 0.700778 0.446563 0.0506074 1.01134 -3.32058 0.0967448 0.679567 0.0676418 
230 1 0.750021 0.551834 0.00199069 0.434706 -3.29309 0.0681706 -0.108607 -0.341852 
231 1 0.751179 0.503803 0.0507814 0.689422 -3.28777 0.266664 -0.827736 0.0392608 
232 1 0.70271 0.551623 0.0483885 0.683012 -3.32161 -0.548047 -0.00789361 0.257274 
590 1 0.754146 0.449011 0.104029 1.42998 -3.25424 -1.04867 0.506122 -0.78643 
629 1 0.705382 0.503792 0.0986549 2.00036 -3.30915 -0.60482 -0.774078 0.211094 
630 1 0.747386 0.551756 0.102739 0.445645 -3.27037 0.225315 0.241798 0.0673294 
190 1 0.752402 0.451469 -0.00116361 0.436139 -3.31581 -0.0226154 -0.486904 0.316571 
229 1 0.705472 0.49628 0.00192518 1.63989 -3.3103 -0.896834 0.347473 0.0416527 
194 1 0.852173 0.456436 0.00130669 1.20434 -3.26022 -0.0988531 -0.682605 -0.184631 
196 1 0.802103 0.448874 0.0491007 0.914644 -3.33596 -0.429326 0.287 0.239414 
235 1 0.849842 0.50216 0.0550941 0.728088 -3.35611 -0.211189 0.0831244 -0.219753 
236 1 0.795636 0.553092 0.0529668 0.74951 -3.35825 0.68557 0.117629 -0.0807519 
594 1 0.848364 0.451985 0.101458 0.254375 -3.35074 0.0847412 -0.0742747 0.0494531 
633 1 0.795956 0.503019 0.104081 0.937144 -3.31913 0.409669 -0.0993891 -0.388128 
634 1 0.848648 0.551056 0.102767 0.225836 -3.3538 -0.0443368 0.114664 0.0581924 
233 1 0.802643 0.499159 0.00134441 0.765059 -3.33412 -0.378013 0.476285 0.0739364 
234 1 0.849632 0.550878 0.00248097 0.400242 -3.33837 -0.334716 0.141599 -0.428235 
164 1 1.00093 0.455493 0.050249 0.94144 -3.31575 -0.278381 -0.698899 0.197892 
204 1 0.998083 0.547473 0.0508113 0.580013 -3.25295 0.131377 0.224076 -0.0881076 
200 1 0.898656 0.450776 0.0483734 0.54372 -3.34667 0.139004 0.0531381 0.458551 
238 1 0.946305 0.550881 0.00720247 2.45128 -3.27573 0.335161 0.28389 -1.12257 
239 1 0.948733 0.502585 0.0493364 0.453561 -3.2972 -0.255334 -0.506137 0.423863 
240 1 0.895356 0.556546 0.0498009 1.85552 -3.19316 0.74489 -1.06055 0.506249 
598 1 0.945884 0.454015 0.100886 0.634538 -3.34421 -0.144798 -0.210714 -0.2328 
637 1 0.899816 0.505736 0.102208 0.744038 -3.35355 -0.34392 -0.442511 -0.0922034 
638 1 0.94956 0.549301 0.1008 0.537032 -3.32221 -0.107976 0.280289 -0.0156407 
237 1 0.899012 0.504132 0.00135033 0.483036 -3.31533 0.156139 -0.220049 0.0524332 
243 1 0.0448887 0.596329 0.0519891 1.22776 -3.31588 0.639714 0.441868 0.0440502 
244 1 0.000504759 0.651374 0.0499616 0.322962 -3.32635 0.337551 -0.260076 -0.14804 
248 1 0.0969697 0.650127 0.0492558 1.03938 -3.30324 0.116502 -0.394381 0.472876 
642 1 0.0486263 0.651414 0.0998863 0.276201 -3.37498 -0.178782 -0.284683 0.0888818 
645 1 0.099618 0.601718 0.105189 0.962612 -3.34017 -0.415657 -0.200828 -0.812738 
641 1 -0.00267114 0.596096 0.100333 1.05519 -3.33718 0.183488 0.643896 0.256666 
245 1 0.102056 0.596546 0.00134485 0.734515 -3.32824 -0.402082 0.329855 0.0947135 
247 1 0.147879 0.598361 0.051822 0.381098 -3.33596 -0.00143706 0.160883 0.0862084 
252 1 0.199329 0.649347 0.0549012 0.345923 -3.31648 -0.113243 -0.126518 -0.144686 
646 1 0.147899 0.651336 0.103352 0.504515 -3.31076 0.175959 -0.353569 -0.321748 
649 1 0.198931 0.598583 0.0992534 0.470312 -3.36016 0.00715418 0.140555 0.388948 
246 1 0.152217 0.648499 0.00454243 0.79506 -3.34259 -0.308775 0.00874821 -0.471363 
249 1 0.199918 0.597644 0.00288782 0.294512 -3.34209 -0.175794 0.150244 -0.0598832 
250 1 0.246875 0.652662 0.00490775 0.8303 -3.34038 0.259215 -0.408193 -0.463863 
251 1 0.250501 0.597576 0.0525553 0.519689 -3.35775 -0.111603 0.205378 -0.123276 
256 1 0.297298 0.653887 0.0539538 0.948733 -3.33216 0.196175 -0.220833 -0.0605834 
650 1 0.248443 0.650993 0.102288 0.28185 -3.33508 0.115678 -0.374974 0.114162 
653 1 0.30137 0.599327 0.0991477 0.412547 -3.34161 -0.192542 0.197084 0.204166 
253 1 0.301501 0.603767 0.00397404 1.01667 -3.2855 -0.520639 -0.443021 -0.267253 
254 1 0.346745 0.649306 0.00649562 2.5502 -3.26306 0.263896 0.617232 -0.632584 
255 1 0.349661 0.597517 0.050644 0.706612 -3.26263 0.16106 0.344919 0.3146 
260 1 0.398158 0.649811 0.0493806 0.524478 -3.37143 0.447647 0.135585 -0.0156983 
654 1 0.352766 0.652546 0.100536 0.488395 -3.35879 -0.336199 0.0162557 -0.1042 
657 1 0.401013 0.603493 0.101275 0.923742 -3.3624 -0.107474 -0.382442 -0.258028 
259 1 0.449341 0.599751 0.0476534 0.411921 -3.36272 -0.418968 0.130791 -0.0474688 
263 1 0.550252 0.596889 0.0508082 0.460812 -3.37773 0.0638651 -0.0609931 -0.24497 
264 1 0.498673 0.650649 0.0493112 0.362175 -3.30611 0.0612385 -0.345192 -0.0262258 
658 1 0.452682 0.651386 0.0990888 0.626544 -3.34685 -0.449515 -0.0673014 -0.0846912 
661 1 0.497168 0.594526 0.0969299 1.35584 -3.28851 0.0758055 0.752556 0.0327455 
662 1 0.549787 0.646062 0.0973671 0.443097 -3.36512 -0.118389 0.0587766 0.100396 
267 1 0.649349 0.598523 0.0466963 0.483011 -3.34438 0.230514 -0.153911 0.0645086 
268 1 0.60212 0.645149 0.0501402 0.968031 -3.34342 -0.384409 0.0972693 -0.0361188 
665 1 0.600327 0.596448 0.103962 0.807305 -3.31787 -0.0379594 0.293651 -0.414772 
666 1 0.650183 0.645792 0.101045 0.334558 -3.34448 -0.169865 0.537011 -0.167427 
271 1 0.746675 0.603102 0.0516881 0.55247 -3.27939 0.434207 -0.4774 0.0454104 
272 1 0.69771 0.646517 0.046047 1.16527 -3.30096 -0.270627 0.316986 0.393304 
669 1 0.696327 0.599986 0.101916 0.543191 -3.34412 0.348085 -0.311285 -0.0885492 
670 1 0.746452 0.648003 0.101768 0.499241 -3.34049 0.15149 0.152625 0.0677792 
270 1 0.750097 0.651704 0.00576391 1.53297 -3.27622 -0.214042 -0.168299 -0.94837 
275 1 0.851445 0.600688 0.0495012 0.788084 -3.26982 -1.09221 0.85854 0.281722 
276 1 0.797465 0.65015 0.0539208 0.661109 -3.31933 0.607388 -0.410845 -0.105117 
673 1 0.798304 0.600533 0.105476 0.744051 -3.35056 0.271987 0.0853028 -0.57533 
674 1 0.852571 0.651899 0.100743 0.721257 -3.37057 -0.400094 -0.505208 -0.0465785 
273 1 0.799482 0.602664 0.000678266 0.455888 -3.363 0.135062 -0.277811 0.245956 
277 1 0.901419 0.605922 0.00367279 1.55405 -3.27344 -0.34701 -0.266833 -1.02744 
278 1 0.951712 0.653741 -0.000839573 0.626462 -3.28456 0.162892 -0.705243 0.0729048 
279 1 0.948708 0.602936 0.0497379 0.30638 -3.27952 0.347393 -0.0187734 0.328798 
280 1 0.900684 0.654316 0.0478029 0.608789 -3.3014 -0.264919 -0.0114428 0.419444 
677 1 0.90023 0.601232 0.0991404 0.376096 -3.3469 -0.00206383 0.296952 0.425403 
678 1 0.952206 0.652069 0.0980105 0.552222 -3.35706 -0.253986 -0.125525 0.547786 
283 1 0.0516336 0.706157 0.0496 1.0849 -3.29072 0.115434 -0.439866 -0.251966 
284 1 0.00124781 0.750864 0.0491467 0.248892 -3.32576 -0.318668 0.213389 0.128278 
285 1 0.10347 0.704075 0.00375778 1.37733 -3.32437 -0.404413 -0.333588 -0.589009 
288 1 0.1064 0.752343 0.0501917 1.5078 -3.31547 -0.634046 -0.148038 0.19269 
682 1 0.0522284 0.750103 0.100703 0.480194 -3.36288 -0.318837 0.443899 0.164715 
685 1 0.0963833 0.700431 0.100883 0.883895 -3.2807 0.383114 0.115972 0.0709852 
681 1 -0.00113236 0.702797 0.0958519 1.06594 -3.30482 0.244689 0.0505101 0.833352 
287 1 0.145568 0.695863 0.0536098 2.28359 -3.27632 0.685367 0.536829 0.048547 
292 1 0.199334 0.750268 0.0511346 0.215547 -3.33286 -0.0273001 0.25061 0.0586443 
686 1 0.152211 0.749769 0.101674 0.569607 -3.33381 -0.341498 0.336131 -0.0953671 
689 1 0.198385 0.701655 0.101514 0.231546 -3.31144 0.102428 -0.18837 0.0965815 
289 1 0.198416 0.698888 0.00524376 0.744638 -3.31106 -0.0791538 0.103451 -0.398467 
291 1 0.246475 0.701131 0.0532704 0.305209 -3.2979 0.482375 0.108501 -0.0906929 
293 1 0.29888 0.699843 -0.000808846 0.467655 -3.37211 0.0610195 0.118384 0.109371 
296 1 0.294053 0.75422 0.047155 1.65571 -3.32408 0.849148 -0.523826 0.53489 
690 1 0.247795 0.753059 0.0998964 0.338193 -3.34055 0.243644 0.0196172 0.0717156 
693 1 0.299748 0.703069 0.100705 0.195105 -3.34048 0.018752 -0.158201 -0.180402 
295 1 0.351355 0.703431 0.0502736 0.533138 -3.37344 -0.280477 -0.0593252 -0.173196 
300 1 0.403083 0.749319 0.0471828 0.666583 -3.27514 -0.53868 0.200448 -0.123963 
694 1 0.348864 0.751695 0.100235 0.549425 -3.29392 0.243317 0.123816 -0.433452 
697 1 0.401473 0.706421 0.0988899 1.4623 -3.31867 -0.224052 -0.685247 0.22805 
299 1 0.449175 0.699845 0.0481725 0.372893 -3.33773 0.205874 -0.010983 -0.163832 
303 1 0.548171 0.699675 0.0461887 1.05494 -3.30383 0.358918 -0.174797 0.225881 
304 1 0.503901 0.750646 0.0514265 1.02167 -3.32513 -0.660568 -0.0277933 -0.922201 
698 1 0.451731 0.749691 0.0974922 0.518744 -3.29614 -0.0799692 0.0992614 0.145434 
701 1 0.501768 0.699697 0.0962651 0.464753 -3.30458 -0.26905 -0.331651 0.398149 
702 1 0.549393 0.747831 0.0993862 0.183043 -3.22256 0.292669 -0.169481 -0.0912339 
298 1 0.450356 0.754068 -0.00117061 1.16 -3.35322 0.679433 -0.428191 -0.10413 
305 1 0.603583 0.697527 0.00545744 2.5088 -3.25283 -0.851659 0.0622462 -0.895745 
307 1 0.651597 0.696137 0.0483669 0.636131 -3.28186 -0.122292 0.0828078 0.681852 
308 1 0.598553 0.747455 0.0498894 0.329421 -3.30769 0.156865 0.185206 0.193063 
705 1 0.597501 0.695527 0.0972113 0.420753 -3.36776 0.371018 0.082195 -0.0161094 
706 1 0.648015 0.746878 0.0983112 0.169587 -3.39208 0.133667 -0.262272 0.147995 
306 1 0.647632 0.750105 0.00264494 0.608709 -3.26943 0.19343 -0.0258388 -0.19774 
310 1 0.748669 0.748521 0.00292585 0.653426 -3.36288 0.250797 0.319539 -0.26935 
311 1 0.75034 0.699239 0.0516578 0.353363 -3.25284 -0.366357 0.114513 -0.140612 
312 1 0.700549 0.746542 0.0487512 0.640002 -3.29474 -0.22767 0.391103 0.310193 
709 1 0.69955 0.696642 0.0974812 0.503905 -3.37921 -0.269505 0.193503 0.44089 
710 1 0.750125 0.749759 0.0985109 0.667076 -3.35102 -0.490897 0.0480162 0.202226 