ITEM: TIMESTEP
10500
ITEM: NUMBER OF ATOMS
4000
ITEM: BOX BOUNDS pp pp pp
2.0590579683787080e+00 3.8440942031620722e+01
-1.1042381746354943e+00 4.1604238174634666e+01
-1.0786224315153699e+00 4.1578622431515178e+01
ITEM: ATOMS id type xs ys zs c_csym c_peratom fx fy fz 
8 1 0.104411 0.0449506 0.0561397 2.58024 -3.18968 -0.0419719 0.384798 -1.00177 
3 1 0.0534969 -0.000540962 0.0524849 1.00111 -3.31493 -0.383693 -0.521721 -0.127937 
402 1 0.0517732 0.0510553 0.0977046 0.69276 -3.259 -0.250928 -0.177759 0.163482 
401 1 -0.00209091 -0.00546507 0.101497 0.988594 -3.28889 0.222161 0.428573 -0.415911 
12 1 0.196625 0.0471688 0.0471737 4.96303 -3.27541 0.053463 0.473814 0.0593191 
47 1 0.148154 0.100968 0.0531177 0.511446 -3.32308 0.121176 0.0680617 -0.263665 
11 1 0.250725 0.00140948 0.0500199 0.636173 -3.20501 -0.4216 0.501188 -0.660021 
7 1 0.15342 -0.00276669 0.0469961 0.893195 -3.26718 -0.530808 -0.0206566 0.308847 
406 1 0.149402 0.0527921 0.100962 0.546637 -3.22126 0.653829 -0.291576 0.332048 
449 1 0.196532 0.103949 0.103195 0.98247 -3.27751 -0.0202072 -0.462863 -0.0587578 
16 1 0.301896 0.05547 0.0484661 1.48655 -3.28515 -0.215887 -0.481015 0.313213 
15 1 0.352325 0.000179317 0.0540764 1.39256 -3.24915 -0.303212 -0.290065 -0.510123 
414 1 0.350592 0.048992 0.0989683 0.271427 -3.34211 -0.165879 0.109418 0.130218 
13 1 0.30615 0.00236829 0.00135453 1.67144 -3.33427 -0.133853 0.0668298 -0.108013 
20 1 0.398446 0.0468016 0.0499788 0.851252 -3.24456 0.342069 0.369639 -0.184254 
24 1 0.502325 0.0507577 0.047138 0.973104 -3.32811 -0.156883 0.218444 0.139191 
18 1 0.450939 0.0461742 -7.89732e-05 1.05908 -3.24894 -0.674191 0.193376 0.296655 
19 1 0.449184 0.00037083 0.0490565 0.503856 -3.28025 0.496884 0.275601 0.312974 
418 1 0.449579 0.0512617 0.0972406 0.602514 -3.28995 0.00277479 -0.458892 -0.0388357 
28 1 0.594528 0.0508 0.0485672 1.04751 -3.32071 0.21071 -0.216553 0.21635 
22 1 0.549349 0.0484961 -0.00458775 1.21213 -3.24934 -0.0216799 0.342993 0.333942 
63 1 0.554301 0.103233 0.0491242 2.57736 -3.30503 -0.442673 -0.0884128 -0.249629 
25 1 0.597953 0.00104528 0.000336466 0.25275 -3.31478 -0.0830055 -0.199503 -0.17284 
23 1 0.546669 0.000564207 0.0502158 0.421385 -3.24793 0.46618 0.0218031 0.0790941 
32 1 0.697207 0.0497791 0.053217 0.677331 -3.27431 0.4925 0.0734174 -0.485218 
67 1 0.645754 0.0994726 0.0523332 0.977138 -3.34198 0.156631 0.0601667 -0.155467 
71 1 0.747669 0.100134 0.0493624 0.553886 -3.27858 0.283561 -0.535236 0.304078 
69 1 0.697832 0.0974212 0.00223907 0.79965 -3.30723 -0.323218 0.430534 -0.223534 
36 1 0.80257 0.0481614 0.0489423 0.491808 -3.28104 -0.369398 0.0196318 0.166253 
35 1 0.851609 -0.00403967 0.0500769 0.698705 -3.19931 -0.411043 -0.0493785 0.177367 
75 1 0.848344 0.0968865 0.0510707 0.53245 -3.30716 0.207707 0.463739 0.0516101 
434 1 0.84938 0.0510062 0.102885 0.64352 -3.33426 -0.0261435 0.0908112 -0.217356 
30 1 0.747373 0.0499992 -0.0015766 0.635544 -3.3319 0.32383 -0.155523 0.376945 
34 1 0.85174 0.0465197 0.00275749 0.465049 -3.23798 0.065233 0.48575 -0.428554 
4 1 0.998581 0.0424012 0.0508075 1.38883 -3.33583 -0.243893 0.519427 0.0595061 
40 1 0.897186 0.0440411 0.0518016 0.872025 -3.19612 0.0422073 0.431551 -0.243473 
39 1 0.94451 -0.00437346 0.0521851 0.618691 -3.29189 0.41517 -0.0934134 -0.280403 
38 1 0.947248 0.0451443 -0.00302552 1.07819 -3.2683 -0.0112114 -0.0736416 0.710565 
77 1 0.89753 0.0990852 0.00049453 0.733516 -3.18905 0.362057 -0.341041 0.432087 
445 1 0.100857 0.100893 0.100982 0.591165 -3.25194 -0.3169 0.14182 0.184796 
43 1 0.055634 0.0997326 0.049928 1.90286 -3.1771 -0.606862 -0.411611 0.152398 
48 1 0.0908458 0.154756 0.0524955 2.1364 -3.25539 0.685341 -0.0146687 -0.546969 
83 1 0.043344 0.205139 0.0513846 1.41411 -3.29237 0.193267 -0.337626 -0.0938074 
81 1 -0.00168761 0.199745 -0.00241095 0.649392 -3.24417 -0.418668 0.319617 0.0971963 
52 1 0.199992 0.15058 0.0507753 0.726469 -3.23731 -0.489048 0.397523 0.180705 
446 1 0.146505 0.151741 0.1014 0.450641 -3.30664 0.142089 0.179218 -0.108165 
87 1 0.146032 0.200625 0.0547804 0.53363 -3.32895 0.289022 0.0620835 -0.300266 
49 1 0.193651 0.0998938 -0.000359531 1.18184 -3.29505 0.542319 -0.211628 0.515104 
51 1 0.24202 0.102173 0.0511147 2.03774 -3.31476 0.662529 -0.687501 -0.162855 
55 1 0.354061 0.0979326 0.0474545 1.017 -3.22278 -0.157597 0.400962 0.000865006 
56 1 0.300626 0.14678 0.0505468 1.22289 -3.35234 -0.127351 0.19638 -0.301166 
59 1 0.446154 0.100138 0.0495859 0.507357 -3.26097 0.295104 -0.224201 -0.270205 
60 1 0.397462 0.148754 0.0471959 0.478576 -3.28592 -0.045165 0.49204 -0.159465 
64 1 0.49708 0.151386 0.0503165 0.694657 -3.27423 0.358609 -0.260228 0.00185483 
57 1 0.403135 0.10184 -0.00231323 0.721274 -3.32814 -0.230569 0.060249 -0.206465 
461 1 0.49788 0.0979199 0.0962631 0.873118 -3.29846 0.436077 0.487345 0.146802 
68 1 0.604198 0.154802 0.045778 2.71684 -3.21279 -0.444246 -0.209014 0.249356 
462 1 0.555092 0.145647 0.0960101 2.33721 -3.29674 -0.184479 0.686107 0.165048 
101 1 0.50024 0.204866 -0.00207928 0.6872 -3.30197 0.0209044 -0.203478 -0.187361 
72 1 0.703879 0.150156 0.048535 1.50858 -3.26623 -0.978395 -0.0857456 -0.214825 
107 1 0.653487 0.2009 0.0498093 0.573183 -3.27333 0.330446 0.0233214 -0.0765336 
66 1 0.649976 0.150818 -0.00268582 0.47528 -3.2945 0.215117 -0.311185 -0.218356 
70 1 0.747964 0.14754 -0.00439648 1.19596 -3.2724 0.0341359 0.348054 0.284633 
109 1 0.699267 0.197987 -0.00593359 0.847815 -3.3039 -0.201315 0.22377 0.312438 
76 1 0.795664 0.148029 0.0493666 0.594408 -3.36437 0.423742 0.181319 0.187507 
513 1 0.79817 0.200865 0.0988477 0.498042 -3.33018 0.0274183 -0.159488 0.39247 
115 1 0.848251 0.200093 0.0519089 0.489127 -3.28903 0.150571 -0.431823 -0.0603079 
111 1 0.74859 0.198592 0.0480738 0.404215 -3.21841 -0.391891 0.00618356 0.339465 
73 1 0.79991 0.0995423 0.00182856 0.336226 -3.27172 -0.0395067 -0.258933 0.00465148 
113 1 0.80025 0.202079 0.00493925 2.45754 -3.25894 0.11633 -0.777091 -1.04514 
44 1 0.998472 0.147363 0.0495571 0.855492 -3.23008 -0.454154 0.173657 0.276753 
79 1 0.944048 0.0920109 0.0482434 2.61562 -3.30614 0.59045 0.244669 0.154373 
80 1 0.903312 0.146929 0.0549376 1.98753 -3.28525 -0.471956 0.49134 -0.952904 
481 1 1.00182 0.202518 0.104619 1.22162 -3.30862 -0.353455 0.108778 -0.433835 
517 1 0.900434 0.199901 0.0987919 0.794951 -3.26763 -0.0172848 -0.0417484 0.139273 
41 1 0.999607 0.0937282 0.00220762 0.730479 -3.3292 0.0829174 0.120459 0.350375 
78 1 0.949221 0.148202 0.000759291 0.468566 -3.30289 0.254403 -0.193982 0.232072 
88 1 0.0970016 0.253186 0.0498996 0.729288 -3.31445 0.303843 0.0172258 0.117887 
123 1 0.0466151 0.30176 0.0521009 1.08413 -3.30817 0.420949 -0.205408 -0.110408 
84 1 -0.00547891 0.250919 0.0489976 1.26447 -3.20759 0.701463 0.300451 0.549223 
125 1 0.100586 0.302359 0.00185602 0.474285 -3.34994 -0.312722 -0.376471 -0.0756691 
525 1 0.106787 0.306701 0.101197 2.00583 -3.16986 -0.584982 -1.10981 0.0333168 
82 1 0.0488256 0.249982 -7.34069e-05 0.451508 -3.31013 -0.329526 0.544437 -0.141351 
91 1 0.251351 0.196515 0.0512134 0.967791 -3.26908 -0.0824754 0.405913 -0.0216152 
92 1 0.200663 0.248278 0.0552405 1.16154 -3.33264 -0.250923 0.0382454 -0.37451 
86 1 0.151336 0.251708 0.00222259 0.586551 -3.29351 -0.0908463 0.142031 0.161961 
489 1 0.202193 0.199432 0.102571 0.751231 -3.28744 -0.49741 0.409999 -0.191605 
490 1 0.250041 0.249534 0.100697 0.303528 -3.27498 0.0926756 -0.091531 0.158808 
90 1 0.250573 0.251149 0.00196346 0.570274 -3.29366 -0.580048 0.101526 -0.119214 
93 1 0.291562 0.199639 -0.00121273 2.33407 -3.2147 0.876226 0.0735638 0.318158 
95 1 0.348876 0.200946 0.0462587 0.492817 -3.36358 -0.198151 -0.0682677 -0.0986818 
96 1 0.300764 0.253971 0.0494985 1.10373 -3.29883 -0.253473 -0.455342 0.0242857 
94 1 0.346345 0.250469 -0.0035044 0.96128 -3.31926 0.441892 0.222945 0.578983 
97 1 0.402402 0.203841 -0.00201787 0.560895 -3.3008 -0.332001 -0.128986 -0.233837 
99 1 0.448713 0.19945 0.0453867 0.771113 -3.30277 -0.0421051 0.289226 0.697735 
100 1 0.399345 0.252135 0.0474191 0.419968 -3.32169 -0.0868403 -0.00212996 -0.152986 
98 1 0.452101 0.254444 0.00106758 0.621596 -3.29365 0.202062 0.138864 -0.106728 
104 1 0.500593 0.249693 0.0525674 1.01754 -3.26763 -0.00951666 0.318586 -0.560298 
501 1 0.503058 0.199862 0.096135 0.81499 -3.32155 -0.280349 -0.338371 0.183662 
498 1 0.44903 0.246661 0.0975773 0.660685 -3.2758 -0.141959 -0.438001 0.182073 
103 1 0.549279 0.203831 0.046995 1.01364 -3.28036 0.343867 -0.36352 0.0459868 
143 1 0.549801 0.300762 0.0546166 1.34081 -3.29618 0.234452 -0.188155 -0.241244 
108 1 0.602888 0.250774 0.052316 0.610028 -3.30067 -0.195567 0.276956 -0.21871 
145 1 0.594297 0.305636 0.00112722 6.88569 -3.278 0.686152 -0.300117 0.0410172 
505 1 0.602122 0.204142 0.0980927 1.42355 -3.30483 -0.359688 -0.932504 0.0571833 
502 1 0.551686 0.250384 0.101206 0.615166 -3.26133 -0.0763836 0.0514327 -0.287271 
112 1 0.702487 0.249634 0.0477838 0.74056 -3.25021 -0.216999 -0.317403 0.325795 
110 1 0.747049 0.246 -0.00361354 1.12081 -3.25928 0.047992 0.237881 0.0562653 
147 1 0.656125 0.300695 0.0484319 1.08865 -3.25013 -0.814765 0.334299 0.447794 
506 1 0.652437 0.249315 0.102685 0.44456 -3.30124 0.270249 0.233452 -0.00072027 
151 1 0.745269 0.29961 0.0500452 0.699801 -3.214 0.248592 0.272699 0.217687 
509 1 0.696885 0.19832 0.102938 0.781205 -3.25606 0.0071837 0.0671892 -0.582805 
106 1 0.649491 0.252083 0.00277021 0.814072 -3.29524 -0.0649617 -0.146531 -0.513635 
116 1 0.792348 0.248731 0.0503927 1.29719 -3.25236 0.276717 0.0447525 0.148316 
114 1 0.848886 0.249292 0.00157061 0.688831 -3.2085 -0.35495 -0.112901 0.317847 
117 1 0.899698 0.195597 -0.00136408 0.795848 -3.32162 -0.10156 0.312082 0.286546 
119 1 0.951021 0.200166 0.0497375 0.386039 -3.29025 0.121515 -0.579986 0.192667 
120 1 0.899557 0.245315 0.0487661 1.08034 -3.21456 0.171766 0.384529 0.441083 
159 1 0.947766 0.298897 0.0530007 0.710893 -3.29358 0.0536338 0.0708777 -0.326429 
118 1 0.947891 0.247947 0.00319734 0.688772 -3.21867 -0.0404544 0.289913 -0.906386 
121 1 0.998709 0.303108 0.00164321 0.467268 -3.33901 -0.239412 -0.517168 -0.27507 
128 1 0.105174 0.348198 0.0509975 1.39322 -3.28045 -0.151755 0.539999 -0.494525 
122 1 0.0475399 0.352918 0.00272672 0.525066 -3.29798 0.34986 -0.0659591 -0.314245 
127 1 0.154318 0.300812 0.0515937 0.905215 -3.23838 -0.316838 -0.735496 -0.487007 
132 1 0.197205 0.348853 0.0502696 0.735335 -3.21488 0.260179 0.611238 0.120506 
167 1 0.153332 0.401088 0.0484922 0.69414 -3.30138 -0.570458 0.0789774 0.169522 
529 1 0.200537 0.30096 0.0999307 0.469288 -3.28492 -0.0495797 -0.183274 0.410787 
526 1 0.152758 0.351554 0.103023 0.580293 -3.20692 0.171264 0.688634 -0.101707 
135 1 0.347417 0.30249 0.0518422 0.776911 -3.25136 0.592625 -0.446834 -0.219467 
133 1 0.294472 0.301963 0.00108953 0.684168 -3.26401 0.397172 0.0418655 0.0153178 
131 1 0.247349 0.302992 0.0508683 0.617525 -3.27967 0.131886 -0.412094 -0.0727274 
136 1 0.301256 0.348867 0.0493478 0.881016 -3.23623 -0.321426 0.34215 0.198294 
534 1 0.347312 0.349143 0.104113 0.671335 -3.31401 0.122038 -0.273074 -0.213552 
139 1 0.4535 0.302986 0.0497972 0.972317 -3.29742 -0.0832201 -0.180684 -0.434447 
140 1 0.396056 0.34899 0.0540381 1.14801 -3.3466 0.284043 0.207644 -0.295556 
144 1 0.5013 0.352783 0.054413 1.03838 -3.2511 -0.0100743 -0.337459 -0.674798 
537 1 0.406198 0.295704 0.0984639 2.49728 -3.23048 -0.968024 0.417462 -0.00164887 
538 1 0.450701 0.345416 0.105326 2.23362 -3.25735 -0.202111 0.438157 -0.616503 
148 1 0.598943 0.35037 0.047924 0.899935 -3.33104 0.428567 -0.10271 0.340071 
542 1 0.550689 0.348697 0.101168 0.413461 -3.32443 0.334699 0.0295026 0.14382 
183 1 0.552943 0.400742 0.0495367 0.471716 -3.28559 -0.145429 -0.0794197 -0.251593 
545 1 0.607835 0.300717 0.0997937 1.60361 -3.32169 -0.207157 0.0589011 -0.116387 
541 1 0.498854 0.297165 0.099454 0.617258 -3.26397 -0.0958236 0.0667034 0.565301 
185 1 0.604822 0.397009 -0.0028609 1.85982 -3.25045 -0.448907 0.768782 0.350331 
152 1 0.70271 0.353242 0.0475776 0.778597 -3.28272 -0.130254 -0.325602 0.0170543 
146 1 0.653554 0.35255 -0.00419122 1.09073 -3.28038 0.0905301 -0.57116 0.385748 
187 1 0.649483 0.400245 0.0503486 0.64538 -3.25435 0.431446 -0.0643379 -0.548166 
546 1 0.65424 0.352521 0.0994982 0.679864 -3.26846 -0.132714 -0.091448 -0.168961 
149 1 0.698542 0.299575 0.00115078 0.782924 -3.15429 0.607719 0.0668768 -0.655955 
155 1 0.846702 0.291162 0.0527136 2.23512 -3.29057 0.135456 0.562963 -0.110342 
156 1 0.800164 0.347271 0.0524374 0.638843 -3.21364 -0.679327 -0.365085 -0.362904 
195 1 0.846147 0.395245 0.054817 1.20447 -3.23151 0.411531 0.307355 -0.120871 
554 1 0.843865 0.343841 0.100781 1.28728 -3.28914 0.390597 0.205661 0.377489 
153 1 0.795466 0.296954 0.00422555 1.20188 -3.26067 -0.00296007 -0.130679 -0.26495 
150 1 0.748991 0.347318 -0.00370499 0.808793 -3.33773 0.288771 0.371919 0.180523 
193 1 0.803595 0.400188 -0.000718354 1.01557 -3.30145 -0.363868 0.289075 -0.316623 
124 1 0.998812 0.349298 0.0481991 0.625805 -3.18809 0.467378 -0.128384 0.697047 
160 1 0.89051 0.345028 0.0485636 2.98718 -3.31903 0.293925 -0.0968592 0.426354 
157 1 0.897776 0.299199 0.00121589 0.441009 -3.35338 -0.0555589 0.129657 -0.0804261 
197 1 0.899193 0.396467 0.00813698 6.69878 -3.29494 -0.473079 0.403492 -0.700476 
163 1 0.0477913 0.402754 0.0458843 1.18441 -3.31415 -0.0567999 -0.328681 0.66946 
165 1 0.100031 0.401384 0.0014872 0.38734 -3.35012 0.217844 -0.0894534 -0.254622 
168 1 0.0975738 0.450945 0.0493522 0.336746 -3.28699 0.518205 -0.174831 -0.354263 
164 1 -0.00733592 0.448592 0.0515535 2.06409 -3.31094 0.278747 0.21137 -0.0998795 
161 1 -0.00786015 0.4018 0.00107831 1.59768 -3.232 0.495651 -0.493849 -0.629541 
162 1 0.0446261 0.449307 -0.00123682 0.563069 -3.31098 0.363003 -0.0595486 0.0692864 
171 1 0.249006 0.398446 0.0508665 0.544582 -3.34105 0.0871413 0.0775216 -0.104796 
172 1 0.202222 0.450864 0.0478014 0.542108 -3.25663 -0.14848 -0.494797 0.236587 
166 1 0.150622 0.451401 8.71951e-06 0.227914 -3.28534 -0.471108 -0.132288 0.0675213 
569 1 0.198274 0.40232 0.0985185 0.596148 -3.31639 0.0839882 -0.101714 0.331928 
173 1 0.298995 0.401059 -0.00350973 0.832999 -3.29459 0.0206009 -0.167189 0.148581 
175 1 0.344272 0.40026 0.0502215 0.70042 -3.32675 0.340352 0.103473 -0.0369809 
176 1 0.295028 0.450517 0.0496028 0.501347 -3.26752 -0.17338 -0.245805 0.0181031 
570 1 0.246333 0.45021 0.101195 0.627474 -3.26093 0.111796 -0.0348083 -0.133411 
573 1 0.297146 0.400124 0.103536 0.863268 -3.29222 0.29159 -0.129679 -0.545643 
170 1 0.251426 0.448477 -0.00281145 0.772704 -3.27644 -0.382287 -0.0928139 -0.162356 
179 1 0.447039 0.40022 0.0485441 0.576549 -3.30138 0.240449 0.0671589 0.374633 
180 1 0.398991 0.451768 0.0459441 0.760319 -3.2794 -0.205633 -0.180133 0.0934208 
578 1 0.44589 0.449309 0.0949413 0.759915 -3.33299 0.488442 -0.0800664 0.141809 
621 1 0.498435 0.498196 0.0971066 0.271395 -3.34906 0.232401 0.0165677 -0.0675963 
219 1 0.450321 0.499177 0.0453216 0.313824 -3.31115 0.271161 0.163987 0.503743 
577 1 0.396856 0.39808 0.100338 0.340004 -3.32851 0.248737 -0.066987 -0.172707 
585 1 0.604328 0.400495 0.0970181 0.870788 -3.24162 -0.577678 -0.255395 0.87606 
184 1 0.504212 0.449655 0.0493185 0.514635 -3.31644 -0.347001 -0.0772825 -0.0857594 
188 1 0.599351 0.449525 0.0541451 5.74432 -3.2054 0.437429 0.169321 -0.670278 
582 1 0.550747 0.44871 0.0996662 0.231382 -3.27355 -0.307011 0.0379479 0.405475 
191 1 0.751148 0.399933 0.0455533 1.02412 -3.28311 0.596537 0.240135 0.185008 
192 1 0.699229 0.449225 0.0512709 0.547701 -3.28232 0.311804 -0.169215 -0.272783 
227 1 0.652529 0.497744 0.0487507 0.783781 -3.27295 -0.553539 0.225357 0.165105 
231 1 0.751418 0.496029 0.0522346 0.710762 -3.29825 -0.155244 0.35743 0.125371 
586 1 0.65047 0.450967 0.0998073 0.294269 -3.28029 0.372214 -0.378616 0.464151 
189 1 0.701663 0.40084 -0.00160983 0.30867 -3.27945 -0.145158 0.16594 0.227037 
196 1 0.805124 0.447755 0.0506253 0.672208 -3.30098 -0.191447 -0.123755 0.0127961 
597 1 0.90446 0.392968 0.105585 2.06739 -3.25285 -0.661745 0.666676 -0.39606 
201 1 1.00047 0.499616 -0.00305278 0.694861 -3.24319 -0.50833 0.464598 0.63212 
199 1 0.952097 0.393848 0.0517475 1.64572 -3.15335 -0.653682 0.519827 0.676891 
200 1 0.903485 0.445181 0.0536119 6.15549 -3.27563 0.153952 -0.351943 -0.352916 
239 1 0.945368 0.502729 0.0495619 5.09535 -3.3411 0.187559 -0.283384 -0.198533 
237 1 0.901581 0.503154 -0.00281235 1.12423 -3.30429 0.151046 -0.276705 0.0129194 
205 1 0.0998407 0.50044 -0.0008795 0.235316 -3.29762 0.150503 -0.308452 0.215349 
203 1 0.0467139 0.49615 0.0477934 1.20008 -3.27396 0.216228 0.635223 -0.162064 
208 1 0.104335 0.549492 0.0483694 0.983424 -3.33998 -0.308486 -0.106582 0.327239 
602 1 0.0475624 0.550256 0.0996427 0.549204 -3.22877 0.136476 0.216355 -0.868041 
243 1 0.0476986 0.601356 0.044959 1.16455 -3.22999 0.248237 -0.31883 0.864014 
605 1 0.0985657 0.500892 0.099538 0.441225 -3.20869 -0.0340952 0.556375 -0.450709 
645 1 0.0978938 0.598432 0.0947185 1.05803 -3.31708 0.0379365 0.110007 0.375193 
202 1 0.0543186 0.549377 0.00205207 1.45687 -3.29409 -0.326992 0.155694 -0.282289 
207 1 0.151229 0.497266 0.0495584 0.9664 -3.26748 -0.316564 0.240042 -0.174951 
209 1 0.201157 0.497735 -0.00103606 0.863587 -3.28998 0.252029 0.599867 -0.210631 
212 1 0.196227 0.548397 0.0474021 1.00258 -3.33589 0.235182 0.263623 0.195684 
210 1 0.251635 0.553408 -0.000178952 1.27445 -3.27084 -0.661179 -0.804327 -0.253565 
606 1 0.14879 0.550219 0.101118 0.629932 -3.25292 0.014324 0.171369 -0.492415 
215 1 0.344115 0.497822 0.0498146 1.23962 -3.27485 0.445359 0.479946 -0.577428 
211 1 0.24564 0.499995 0.0500843 0.817093 -3.22987 0.715479 0.503346 -0.323149 
216 1 0.299835 0.554117 0.0464098 0.916351 -3.28955 0.0273189 -0.491133 0.371903 
255 1 0.348145 0.602729 0.0478903 0.395395 -3.31856 0.258554 0.0703824 -0.0152928 
613 1 0.29834 0.499601 0.096365 0.227511 -3.26893 0.00964596 0.147138 0.40883 
614 1 0.350457 0.551498 0.0947728 0.502355 -3.29742 -0.138443 0.035661 0.0723439 
653 1 0.300777 0.601711 0.0994443 0.114444 -3.30045 -0.0385309 -0.123591 -0.226805 
220 1 0.396834 0.548272 0.0449492 0.669634 -3.29835 0.0353238 0.219223 0.292016 
618 1 0.448466 0.547091 0.0931964 0.611894 -3.35349 -0.0417895 0.268787 0.166509 
224 1 0.504569 0.549903 0.0466708 0.503923 -3.32054 -0.101564 -0.285685 -0.0878181 
223 1 0.553666 0.499001 0.0478093 0.377943 -3.30638 -0.0125409 0.383376 0.187971 
622 1 0.553483 0.551086 0.0969166 0.53381 -3.34147 0.01352 -0.125857 0.110244 
228 1 0.602495 0.548898 0.0480409 0.321782 -3.34439 -0.0398326 0.0874479 -0.172244 
665 1 0.604604 0.601031 0.100845 0.874288 -3.28566 -0.694807 0.0659431 -0.289884 
625 1 0.601033 0.498136 0.102365 0.68615 -3.29238 -0.0889982 0.369862 -0.550745 
232 1 0.696486 0.548474 0.0484748 1.76815 -3.2855 0.380202 -0.200014 0.211689 
267 1 0.652661 0.599642 0.0453635 1.60749 -3.28308 0.16327 -0.171973 0.714143 
630 1 0.754588 0.548678 0.101464 0.678988 -3.3622 0.0816955 -0.333569 0.0811977 
633 1 0.806092 0.494175 0.0966003 2.02857 -3.30422 0.00237965 0.274029 0.469974 
235 1 0.860128 0.493686 0.0513242 5.79351 -3.25621 -0.0485232 0.478763 -0.0853085 
236 1 0.810932 0.544862 0.0520733 6.13135 -3.2412 -0.396384 -0.20901 0.466452 
634 1 0.852537 0.546833 0.104194 1.0164 -3.30755 -0.361902 -0.314869 0.257927 
275 1 0.847872 0.599074 0.0476002 1.44363 -3.2211 0.375765 0.497135 -0.0886161 
234 1 0.850205 0.550663 -4.76011e-05 0.663487 -3.25068 -0.228989 -0.278267 -0.29141 
204 1 1.00009 0.549947 0.0475414 0.417587 -3.33677 -0.107904 -0.038098 0.154122 
240 1 0.898951 0.553407 0.0507646 5.5491 -3.14684 -0.88889 -0.897572 -0.498931 
248 1 0.0976388 0.649249 0.0496548 0.661229 -3.32899 0.629605 0.191088 -0.199321 
244 1 -0.000657792 0.650084 0.0529659 0.584736 -3.31639 -0.722673 -0.197008 -0.562704 
247 1 0.152878 0.601265 0.0489986 0.437014 -3.32099 -0.142621 0.0678885 0.119579 
252 1 0.201855 0.650728 0.0467006 0.399075 -3.25906 -0.23323 0.185282 0.352787 
287 1 0.152857 0.702631 0.0461953 0.847784 -3.32603 -0.149927 -0.404847 -0.0124381 
649 1 0.204363 0.600866 0.100982 1.00177 -3.31175 -0.230208 -0.270671 -0.210135 
251 1 0.247808 0.603005 0.0465932 0.906547 -3.27732 0.585539 -0.381215 0.45544 
256 1 0.299312 0.652045 0.0499117 0.526147 -3.29885 0.240814 -0.173776 -0.255392 
291 1 0.250703 0.697184 0.0502473 1.19761 -3.24064 -0.107261 0.655317 -0.294956 
654 1 0.349754 0.65077 0.098115 0.448894 -3.31306 0.129481 0.155978 0.0181952 
650 1 0.251928 0.651396 0.101834 0.492745 -3.30016 -0.174418 0.275092 -0.280454 
693 1 0.303163 0.704798 0.0958581 1.47953 -3.26414 -0.353157 -0.637453 0.231927 
254 1 0.350976 0.65439 -3.26323e-06 1.31089 -3.28346 -0.706717 -0.317775 0.0189552 
259 1 0.452365 0.597453 0.0432826 1.43687 -3.32187 -0.222612 0.0688217 0.194925 
661 1 0.499018 0.599369 0.0950239 0.38529 -3.30102 -0.130338 -0.163771 0.585897 
657 1 0.401812 0.602952 0.0956126 0.788136 -3.27982 -0.220942 -0.650326 -0.0936564 
260 1 0.405477 0.649584 0.0495995 1.57311 -3.28332 -0.502677 -0.0308015 -0.48458 
299 1 0.449992 0.701187 0.0473331 0.483702 -3.28911 0.319761 0.173759 -0.225804 
697 1 0.400274 0.70026 0.0934266 1.4115 -3.31428 0.0987616 0.107865 0.821921 
658 1 0.449696 0.648904 0.0987541 0.483396 -3.1988 0.191577 0.475475 0.248299 
297 1 0.401899 0.698503 -0.0029521 0.856452 -3.24706 0.264178 0.480287 -0.0778583 
263 1 0.54961 0.602361 0.0504526 0.838065 -3.30027 0.592865 0.0525697 -0.181952 
264 1 0.498183 0.649466 0.0506427 0.89206 -3.31227 0.234819 0.303909 -0.45078 
268 1 0.603879 0.65108 0.0496538 0.640781 -3.30713 -0.542806 -0.286783 0.267883 
662 1 0.547957 0.654124 0.10214 1.47292 -3.31552 0.0651482 -0.465459 -0.325983 
705 1 0.600333 0.698089 0.106687 1.38073 -3.28427 0.138574 -0.155015 -0.550525 
271 1 0.750001 0.590977 0.0560619 4.07014 -3.26553 0.326195 0.717658 -0.464787 
272 1 0.704933 0.647339 0.0581188 2.38347 -3.29917 0.0736854 -0.139984 -0.707758 
307 1 0.653075 0.696832 0.05463 0.848774 -3.22421 -0.584747 -0.0912763 0.0857483 
309 1 0.694009 0.700504 0.0029345 6.51131 -3.25091 0.32473 -0.28812 -0.12465 
270 1 0.748138 0.648924 0.00249466 0.58436 -3.30823 0.0428845 0.345345 -0.0215943 
276 1 0.797651 0.645301 0.0515506 1.89576 -3.32653 0.0722315 0.439223 -0.184811 
713 1 0.805499 0.700203 0.10045 0.909567 -3.32123 -0.320423 -0.250232 0.256377 
279 1 0.945021 0.596394 0.0460238 2.0135 -3.24059 0.832598 1.07416 0.17144 
280 1 0.904162 0.651186 0.0516092 1.12356 -3.24332 -0.217672 -0.823479 -0.210674 
319 1 0.947124 0.699364 0.0552494 1.04183 -3.22709 0.383273 0.341268 -0.218229 
678 1 0.943181 0.646128 0.105635 6.35531 -3.25771 0.118341 0.431884 -0.552068 
717 1 0.898436 0.703736 0.105351 1.62141 -3.22984 0.713354 -0.172502 -0.0869835 
277 1 0.89434 0.601574 -0.00296922 1.68188 -3.28068 0.425238 0.140062 0.133745 
283 1 0.0470687 0.698925 0.0526442 0.627569 -3.31584 0.304158 0.281853 -0.162119 
288 1 0.0994539 0.750025 0.0524441 0.726107 -3.30383 0.241454 -0.201232 -0.397984 
323 1 0.0489518 0.798378 0.0505093 0.378192 -3.27895 -0.0286165 0.297895 -0.082511 
282 1 0.0498615 0.751811 0.0023734 0.832217 -3.25624 0.0919409 -0.664633 -0.24288 
289 1 0.205896 0.700925 -0.00321784 0.950965 -3.2986 -0.219695 0.0499664 0.211962 
292 1 0.201685 0.751276 0.0467295 0.389789 -3.32752 -0.0196062 0.00336517 0.248958 
729 1 0.204067 0.79949 0.0974552 0.844563 -3.28172 -0.590909 0.333298 -0.36205 
327 1 0.151804 0.803588 0.0465825 1.5397 -3.24227 -0.0812884 -0.554692 0.721915 
331 1 0.253187 0.800857 0.0457767 0.711532 -3.31283 -0.00927578 0.0831565 0.158008 
689 1 0.201031 0.701336 0.0968554 0.713227 -3.2798 -0.110577 -0.474948 0.312416 
295 1 0.353785 0.703503 0.0451693 1.12456 -3.31798 -0.305482 -0.0729887 0.0497865 
690 1 0.248203 0.750231 0.100215 0.666956 -3.23589 0.56895 -0.167131 -0.231575 
296 1 0.298096 0.749504 0.0490401 0.709572 -3.30957 0.343241 0.159118 -0.193269 
335 1 0.351482 0.801992 0.0504975 0.626043 -3.3083 -0.470153 -0.27103 -0.495026 
733 1 0.300411 0.798356 0.100851 1.06315 -3.35397 0.0106727 0.272533 -0.0324329 
290 1 0.25143 0.751505 -0.000364435 0.740668 -3.237 -0.193015 0.0250892 -0.15148 
300 1 0.402796 0.754575 0.0520514 1.85406 -3.2096 -0.589035 -0.671992 -0.61166 
698 1 0.451064 0.75285 0.0994643 0.408762 -3.2504 -0.438879 -0.164288 0.428525 
339 1 0.445638 0.801571 0.0500255 0.919369 -3.23964 0.405688 0.558224 -0.0247243 
304 1 0.500283 0.756262 0.0524546 2.16926 -3.26059 0.191889 -0.592095 -0.289882 
303 1 0.551378 0.698011 0.0465177 1.46301 -3.34245 -0.117026 0.0971908 0.596186 
701 1 0.496457 0.702757 0.0971885 1.08035 -3.30841 0.386289 -0.264625 0.0151162 
308 1 0.604055 0.750474 0.0525845 0.628564 -3.27798 -0.112287 -0.177565 -0.326555 
702 1 0.553629 0.746651 0.0997562 1.38104 -3.30979 -0.188744 0.451072 -0.0218222 
343 1 0.553306 0.80184 0.0516117 0.45238 -3.2794 0.105655 -0.186893 -0.00819024 
311 1 0.752773 0.701887 0.0536061 1.28783 -3.28125 -0.44463 -0.523942 0.0890415 
312 1 0.695779 0.746191 0.0512671 1.49506 -3.29265 0.320386 0.545078 0.238933 
306 1 0.649227 0.751668 -0.000457637 1.02777 -3.26389 -0.000352663 0.415065 0.227417 
347 1 0.651956 0.802528 0.0482844 0.748095 -3.26911 0.266964 -0.657807 -0.260347 
706 1 0.648585 0.749114 0.101283 0.627474 -3.30017 0.270707 -0.378869 0.404246 
315 1 0.856925 0.698394 0.052769 1.48549 -3.27346 -0.886751 0.0166155 -0.23692 
316 1 0.801288 0.749743 0.0553178 0.596165 -3.29893 0.525307 0.0524296 -0.705226 
714 1 0.850599 0.750276 0.107739 1.15865 -3.22372 0.165101 0.448173 -0.498965 
355 1 0.85353 0.798753 0.053849 0.719065 -3.29268 -0.257667 0.136287 0.0373641 
314 1 0.850386 0.748192 -3.70977e-06 0.811599 -3.24439 -0.326658 -0.261436 0.618829 
313 1 0.799262 0.698912 0.00507983 0.432925 -3.29555 0.190305 -0.0618238 -0.32285 
353 1 0.799981 0.798269 0.00385159 0.565789 -3.36091 -0.405313 0.0622096 0.157179 
284 1 0.998471 0.750241 0.0482239 0.837614 -3.25302 0.185347 -0.0947146 0.368459 
320 1 0.898413 0.749489 0.0547816 0.768357 -3.29555 0.177426 0.299102 -0.0652189 
757 1 0.903482 0.800908 0.107742 1.52427 -3.20694 -0.347595 -0.558462 -0.836158 
718 1 0.954125 0.751231 0.0979224 1.71942 -3.29191 -0.301547 -0.162667 0.454864 
328 1 0.099634 0.846398 0.0481194 0.470572 -3.32227 -0.247908 0.525763 0.125606 
324 1 0.000856821 0.850058 0.0526066 0.579933 -3.35798 0.0401818 -0.272745 -0.314753 
363 1 0.0480588 0.89963 0.0495854 0.67959 -3.26293 0.710905 -0.101779 -0.184814 
332 1 0.203177 0.849455 0.050853 1.26466 -3.29701 -0.0833605 0.204121 -0.41565 
371 1 0.254619 0.900855 0.0454419 1.1023 -3.2979 -0.374729 -0.29457 0.106873 
329 1 0.196697 0.798609 -0.000406753 0.65352 -3.27413 0.529449 0.201864 -0.522597 
326 1 0.146515 0.846965 -0.00492166 1.2797 -3.27405 0.724416 0.2902 0.442844 
369 1 0.204019 0.899094 -0.00416539 0.482518 -3.30951 -0.154759 0.227558 0.247153 
336 1 0.30359 0.850187 0.0456149 0.550152 -3.22153 -0.734974 -0.126319 0.46613 
734 1 0.351084 0.853904 0.0997787 0.69012 -3.20839 -0.224093 -0.713621 0.0767506 
334 1 0.347136 0.851156 -0.00102229 0.856769 -3.22069 0.812332 -0.305957 -0.480179 
330 1 0.248182 0.850357 -0.00472825 0.515177 -3.2967 0.245084 -0.536399 0.148757 
340 1 0.397241 0.853777 0.0520828 0.927358 -3.27121 0.262577 -0.111391 -0.232815 
344 1 0.503037 0.84807 0.0510281 1.04289 -3.29145 -0.343641 0.362837 -0.174353 
348 1 0.606328 0.851171 0.0499668 0.672701 -3.27855 -0.568376 0.356275 -0.104537 
742 1 0.552985 0.847033 0.101101 0.657121 -3.28125 0.0839406 0.283452 -0.213326 
342 1 0.550137 0.854808 -0.000470218 0.734078 -3.34016 0.0428188 -0.344771 -0.165369 
351 1 0.744667 0.799033 0.0489825 1.71788 -3.25388 0.659781 -0.379737 0.289418 
352 1 0.700601 0.849063 0.0522242 0.292269 -3.18011 0.0886685 0.351556 -0.212434 
346 1 0.652437 0.852199 -0.00108621 0.399379 -3.37909 0.276574 -0.0480388 -0.178056 
387 1 0.656318 0.90084 0.053782 2.17016 -3.24774 -0.569555 0.153856 -0.988286 
349 1 0.706879 0.800648 -0.00280789 2.70282 -3.20489 -0.867354 0.081712 0.202844 
389 1 0.700949 0.905118 -0.00206086 1.4503 -3.31318 -0.261624 -0.600852 0.424685 
356 1 0.798072 0.848841 0.0524251 0.32348 -3.28125 0.166251 -0.397809 -0.114221 
395 1 0.846685 0.895464 0.0497587 0.663455 -3.28485 0.188847 0.502279 0.369536 
350 1 0.746394 0.851413 0.00294074 0.991931 -3.30639 0.337538 0.275239 -0.514763 
354 1 0.847994 0.850748 0.000499798 0.362993 -3.33561 0.222038 -0.146471 0.189521 
359 1 0.948549 0.802173 0.0521664 0.778572 -3.35242 0.0507671 -0.331462 -0.0492928 
360 1 0.89877 0.850248 0.0515405 0.536689 -3.26912 0.0296971 -0.238137 -0.204134 
761 1 1.00656 0.898557 0.101271 1.45954 -3.25227 -0.690981 -0.325894 -0.161852 
397 1 0.900141 0.902355 0.00022632 1.25119 -3.32244 -0.216359 -0.738014 -0.109195 
399 1 0.948359 0.898198 0.050122 0.496993 -3.25697 0.240403 -0.124825 0.180643 
357 1 0.895107 0.79579 0.00236761 1.32537 -3.24147 0.261656 0.752863 -0.105718 
405 1 0.102204 0.999487 0.10261 0.865905 -3.30075 0.149173 -0.172118 -0.388649 
765 1 0.102698 0.902092 0.0954133 0.994089 -3.31792 -0.512686 -0.203881 0.303997 
368 1 0.10211 0.948036 0.0451348 0.686614 -3.30361 -0.108362 -0.00986663 0.485637 
762 1 0.050334 0.950288 0.098437 0.580536 -3.30273 0.544913 -0.09546 0.114522 
1 1 -0.00190968 0.998944 0.000952809 0.625568 -3.35693 0.198162 -0.45022 0.0451753 
365 1 0.103015 0.898451 -0.0016756 0.362166 -3.26328 -0.414023 0.10358 0.370626 
367 1 0.151802 0.896339 0.047439 0.692283 -3.26068 -0.112552 0.0743229 -0.63434 
372 1 0.202671 0.95213 0.0485206 0.626746 -3.25969 0.304641 -0.482029 -0.611794 
766 1 0.152308 0.94883 0.0951774 0.730034 -3.24794 -0.460153 0.731947 0.426062 
375 1 0.347406 0.901152 0.0471558 0.926282 -3.31742 -0.0587127 0.592726 -0.171983 
376 1 0.293011 0.952899 0.0519789 6.77539 -3.16998 1.34992 -0.404555 -0.494113 
774 1 0.35124 0.953672 0.0999515 1.3231 -3.23085 -0.168593 -0.50824 -0.294196 
373 1 0.298904 0.896462 -0.00779552 6.94452 -3.21323 -0.178293 0.511814 0.231667 
379 1 0.453189 0.902057 0.0519436 1.14687 -3.32124 0.0855913 -0.233979 0.305617 