ITEM: TIMESTEP
18000
ITEM: NUMBER OF ATOMS
4000
ITEM: BOX BOUNDS pp pp pp
3.5834385855536528e+00 3.6916561414445773e+01
-3.7943943668670701e+00 4.4294394366866157e+01
-5.1531446885909915e-01 4.1015314468859650e+01
ITEM: ATOMS id type xs ys zs c_csym c_peratom fx fy fz 
405 1 0.0341469 0.0595215 0.0981457 1.28508 -3.25947 -0.71798 0.236182 0.716456 
7 1 0.0838229 0.0542993 0.0517861 1.49524 -3.26433 0.9535 0.519843 -0.594501 
3 1 0.0241904 0.0196012 0.0485833 0.490616 -3.27345 -0.405021 -0.106679 0.445703 
766 1 0.0844918 0.0123866 0.100601 0.586217 -3.33584 -0.520871 -0.172839 0.0829327 
2 1 0.0335382 0.0658848 0.998189 0.928233 -3.29145 -0.265484 -0.505461 0.389275 
5 1 0.0820759 0.0125327 0.999467 0.380204 -3.25288 -0.571002 -0.179901 -0.212509 
11 1 0.205024 0.0414191 0.0499748 0.462862 -3.34981 -0.269024 -0.309785 -0.319941 
409 1 0.146833 0.0497693 0.101274 0.499289 -3.31952 -0.340031 0.0269328 -0.397344 
410 1 0.212553 0.0826832 0.0997024 0.946267 -3.27977 -0.465199 0.511906 0.0353325 
372 1 0.136439 0.00911063 0.0489236 0.869151 -3.30124 0.468188 -0.0855734 0.133831 
770 1 0.196946 -0.000874096 0.100436 0.173785 -3.26088 -0.0835687 0.231722 -0.250367 
10 1 0.203351 0.0840637 1.00075 1.87516 -3.28909 0.532384 -0.178498 0.0605649 
16 1 0.264341 0.0782939 0.0504396 0.339005 -3.27808 0.0933821 0.0690125 -0.549598 
15 1 0.315928 0.0244977 0.0502578 0.46296 -3.19957 0.153621 0.595146 -0.581831 
413 1 0.259611 0.0341199 0.100002 0.239621 -3.3091 0.178882 0.189516 -0.131523 
414 1 0.321508 0.074497 0.0947789 2.25077 -3.34205 0.186532 -0.28547 0.660522 
13 1 0.26472 0.0310457 0.998185 1.58002 -3.38248 -0.21571 0.289863 0.249446 
14 1 0.323104 0.0730011 1.00172 1.27711 -3.29151 -0.323823 -0.787942 -0.023426 
20 1 0.38023 0.0585205 0.0485594 0.917474 -3.30822 0.387922 0.744214 -0.0180704 
19 1 0.431199 0.0117739 0.0453028 0.8672 -3.30823 0.137439 -0.426788 0.618516 
418 1 0.437644 0.0498451 0.103506 2.14932 -3.26132 0.188832 0.846564 -0.768766 
421 1 0.486132 0.00395427 0.100591 0.797928 -3.25476 0.811444 -0.162334 -0.709276 
417 1 0.36807 0.0219983 0.09573 2.17535 -3.23769 0.597826 -0.267743 0.82498 
21 1 0.493937 0.00275694 1.00013 0.636559 -3.33767 -0.268484 0.000230522 -0.177714 
17 1 0.374425 0.0207887 0.997456 0.985179 -3.26296 -0.834098 -0.440437 0.276916 
18 1 0.439021 0.0508345 1.00029 0.636581 -3.28015 0.441664 0.682414 -0.28437 
24 1 0.497915 0.0455623 0.0494236 0.388179 -3.35916 -0.0569769 -0.0484988 0.0768243 
28 1 0.613142 0.0311378 0.0499236 0.522945 -3.32688 0.077602 -0.224829 0.239193 
422 1 0.553434 0.0383379 0.0964192 1.14515 -3.33262 0.205913 -0.20543 0.549255 
465 1 0.618867 0.071687 0.101614 0.736429 -3.32346 0.522182 -0.070947 -0.0912683 
63 1 0.559874 0.0863422 0.0556551 4.13165 -3.22041 -0.0837175 -1.04145 -0.884986 
22 1 0.558002 0.039098 0.000787019 0.462453 -3.33699 -0.0368578 -0.00640898 0.18178 
32 1 0.726423 0.0138007 0.0464887 1.54039 -3.32612 0.910231 -0.0801358 0.612059 
67 1 0.680978 0.0625827 0.0547304 0.625624 -3.31872 0.175453 0.205493 -0.300787 
469 1 0.742063 0.0542262 0.100165 0.655243 -3.33252 -0.0683938 0.00828461 -0.0237129 
426 1 0.672439 0.0236579 0.103987 0.660962 -3.34039 -0.190726 -0.285221 -0.258315 
26 1 0.673744 0.0223173 -0.00032583 0.340401 -3.30493 -0.213111 0.0992376 -0.133006 
65 1 0.625942 0.0715257 1.00381 0.824126 -3.355 0.0088563 0.213053 -0.342227 
36 1 0.80135 0.0465164 0.0468803 1.47675 -3.33311 -0.621068 -0.0904857 0.558497 
434 1 0.850928 0.0384617 0.101176 0.754732 -3.31124 0.309101 -0.0345486 -0.147022 
430 1 0.786861 0.00486565 0.103392 1.05495 -3.30003 0.0143239 -0.285848 -0.68747 
33 1 0.788864 0.00698471 0.995096 0.838251 -3.34545 -0.0496796 0.0127124 0.454157 
75 1 0.864719 0.0840858 0.0518829 0.501654 -3.29378 0.0922548 0.107355 -0.477699 
34 1 0.859261 0.0379082 1.00507 2.32514 -3.18728 -0.576203 0.55556 -1.1041 
4 1 0.977592 0.0724928 0.0505342 0.931272 -3.25198 -0.645027 -0.993328 0.0758625 
40 1 0.91149 0.0349969 0.0511148 0.471224 -3.28451 0.316522 -0.396908 0.395977 
401 1 0.964047 0.0278063 0.101584 0.998681 -3.28714 0.636991 -0.0403287 -0.25403 
438 1 0.915885 0.0750572 0.101885 0.556093 -3.31529 0.0403408 0.275242 0.0509328 
77 1 0.921308 0.0735449 1.00104 1.36476 -3.28306 -0.0473329 0.592681 0.0500108 
8 1 0.0347354 0.105769 0.0506151 1.16144 -3.24474 0.937515 0.529829 0.222653 
47 1 0.10163 0.139603 0.0530723 0.798071 -3.29231 0.0916749 0.012009 -0.439414 
406 1 0.0933308 0.0995755 0.0998269 0.442561 -3.34321 0.0339966 -0.201127 0.0396816 
445 1 0.044255 0.14922 0.103603 0.591336 -3.32953 -0.0882307 -0.116853 -0.315513 
45 1 0.050852 0.145546 1.00204 1.10744 -3.28385 -0.0706824 0.344106 -0.0960973 
6 1 0.102887 0.0931109 0.999131 2.73815 -3.30715 -0.169073 0.921481 0.148059 
12 1 0.153713 0.0878165 0.0505915 1.05417 -3.31936 -0.285755 0.245702 0.275331 
52 1 0.168121 0.178148 0.0448926 0.901556 -3.35462 0.0351087 -0.0309888 0.508087 
51 1 0.214875 0.127834 0.0479953 0.375791 -3.32539 0.153856 0.0719423 0.313114 
449 1 0.158164 0.135056 0.0972209 0.289496 -3.29689 0.220374 -0.425675 0.265774 
450 1 0.222273 0.168938 0.0991127 0.439654 -3.29477 0.359363 0.426029 -0.13531 
49 1 0.160038 0.134556 1.00033 0.786059 -3.33258 -0.0600989 -0.0782131 -0.0515112 
55 1 0.329838 0.113827 0.0479475 0.456926 -3.34917 0.252745 0.265353 0.143301 
56 1 0.281637 0.165503 0.049996 0.763676 -3.33269 0.178142 -0.705099 -0.284739 
453 1 0.271865 0.123701 0.100345 0.965882 -3.2979 0.379164 -0.316837 -0.376533 
454 1 0.342216 0.155739 0.0963733 0.571479 -3.34922 -0.159423 -0.289389 0.345722 
54 1 0.345214 0.154108 -0.00250258 0.872107 -3.33889 -0.404247 -0.000563596 0.328745 
53 1 0.269867 0.122408 1.00083 0.88785 -3.32235 0.491696 -0.12418 0.225047 
59 1 0.450146 0.0956738 0.0511651 0.619765 -3.27723 -0.569011 -0.748869 -0.387944 
60 1 0.403261 0.143816 0.0486242 0.584173 -3.34036 -0.347367 0.112944 -0.197485 
458 1 0.456556 0.13863 0.0972761 0.380614 -3.26355 -0.121032 0.119445 0.299794 
457 1 0.395474 0.102038 0.0980782 1.57096 -3.28473 -0.941564 0.00385036 -0.0985064 
99 1 0.469855 0.180309 0.0474184 0.80955 -3.3105 -0.364581 -0.170179 0.251353 
61 1 0.502513 0.0867932 1.00106 0.965729 -3.34593 0.464414 0.0928356 -0.163915 
461 1 0.500688 0.0862572 0.10221 1.50484 -3.30115 0.302757 0.175411 -0.200611 
64 1 0.508675 0.130228 0.0459475 1.61347 -3.24965 0.92573 0.410557 0.413417 
103 1 0.578581 0.163154 0.0464486 0.880034 -3.35149 0.0442415 -0.183002 0.317155 
462 1 0.569 0.122906 0.0993766 0.405682 -3.24141 0.0759433 0.299466 -0.0181922 
501 1 0.519857 0.170183 0.103164 1.43109 -3.30243 0.488373 0.430723 -0.680043 
62 1 0.575611 0.119776 1.0021 1.1134 -3.34628 -0.130535 0.151119 -0.103032 
101 1 0.523747 0.172342 0.993953 1.35166 -3.22577 0.382298 -0.081093 1.04287 
68 1 0.632218 0.111771 0.0529971 0.669338 -3.34436 0.298392 0.237639 -0.251205 
72 1 0.697012 0.14823 0.0501009 0.443211 -3.38754 0.194746 -0.220127 -0.053853 
71 1 0.750966 0.0968147 0.0552654 1.31674 -3.29788 -0.419535 0.281417 -0.609038 
505 1 0.638468 0.154897 0.0975866 0.562232 -3.2991 0.0610969 -0.321387 0.0206034 
466 1 0.693797 0.103517 0.103121 1.34235 -3.30741 -0.746262 0.176255 -0.406887 
69 1 0.696248 0.103229 0.00133761 1.41802 -3.37536 -0.299092 0.591195 0.206831 
66 1 0.641463 0.156132 0.999731 0.338406 -3.32722 -0.0299303 -0.410354 0.220249 
473 1 0.809632 0.0909046 0.0960974 1.61062 -3.22086 -0.410868 -0.016248 0.5228 
76 1 0.81382 0.136681 0.0501571 0.641053 -3.30144 -0.212691 -0.715083 0.640115 
470 1 0.752329 0.14349 0.101 0.911074 -3.31753 0.520862 -0.465584 -0.363795 
477 1 0.869834 0.127794 0.103829 1.02122 -3.30758 -0.112567 -0.0833496 -0.537268 
80 1 0.874444 0.17078 0.0530275 0.663786 -3.20444 0.103601 -0.132665 -0.557445 
474 1 0.819621 0.179644 0.0994635 0.603811 -3.22863 -0.671868 -1.00416 0.412061 
74 1 0.872057 0.127145 1.00274 0.611568 -3.32516 0.245106 -0.136555 -0.0899324 
70 1 0.760236 0.14311 0.00241302 0.767683 -3.26094 -1.13862 -0.649302 -0.22292 
113 1 0.82328 0.173754 0.0012615 1.25055 -3.17761 0.161778 0.74177 0.0740322 
43 1 0.989502 0.158742 0.0516002 0.956018 -3.25965 0.21777 -0.406318 -0.153417 
79 1 0.929987 0.119808 0.0485923 1.0477 -3.31099 -0.358232 -0.105584 0.451831 
402 1 0.982182 0.110154 0.104223 1.29198 -3.33132 0.11878 0.286383 -0.43133 
441 1 0.931481 0.160978 0.0957637 1.69222 -3.2619 0.383061 0.0987417 0.99798 
78 1 0.933274 0.166075 1.00192 0.557639 -3.36576 -0.0593779 -0.317074 -0.396626 
446 1 0.109857 0.18354 0.0988366 0.475245 -3.32403 0.207401 0.44345 -0.0332102 
48 1 0.0550342 0.18972 0.0515422 0.654958 -3.297 0.131207 0.35568 -0.15359 
83 1 0.00718117 0.241578 0.0471276 0.765491 -3.30977 -0.176838 -0.0352581 0.035696 
485 1 0.0602186 0.236236 0.0947372 1.26865 -3.26296 -0.144154 -0.575295 0.953979 
87 1 0.116676 0.23052 0.0497881 1.02052 -3.33721 0.119594 -0.628692 -0.532738 
486 1 0.127925 0.267319 0.10098 1.00237 -3.23782 0.281167 0.367361 -0.504919 
91 1 0.235407 0.21035 0.048295 0.52752 -3.25711 -0.692969 0.233917 -0.108476 
92 1 0.182153 0.261805 0.0479846 0.477322 -3.32476 0.233234 0.059315 -0.096161 
489 1 0.177575 0.218747 0.0971141 0.458873 -3.34763 -0.237592 -0.141088 0.00281985 
89 1 0.178565 0.219902 -0.00399115 1.06 -3.31436 -0.0355842 -0.0122797 0.661249 
490 1 0.240298 0.254176 0.0963557 0.499902 -3.30369 0.459509 -0.0224454 0.104619 
90 1 0.242612 0.25526 1.00162 0.65602 -3.36536 -0.0523775 -0.127674 -0.434959 
95 1 0.351432 0.195534 0.0479315 0.175864 -3.29713 -0.0466554 0.0982144 -0.000798908 
96 1 0.296531 0.244206 0.0501248 1.09181 -3.29888 0.790034 0.413969 -0.268783 
493 1 0.291072 0.205127 0.0975984 0.277591 -3.34498 0.104185 -0.17981 0.658384 
494 1 0.359378 0.239683 0.0975519 0.30767 -3.36047 -0.274435 -0.173523 -0.00203941 
100 1 0.420014 0.229283 0.0454601 0.483602 -3.33629 0.0375125 0.00278966 0.491334 
139 1 0.487615 0.261748 0.0470478 0.831223 -3.31046 -0.602351 -0.0580515 0.0281463 
497 1 0.407176 0.189966 0.0953829 0.668528 -3.34252 0.314609 -0.0978302 0.268105 
498 1 0.47874 0.221264 0.10172 1.05976 -3.26685 -0.334481 -0.224645 -0.671205 
537 1 0.425757 0.269687 0.0960777 0.41353 -3.34617 0.00714227 0.269129 -0.077908 
104 1 0.533101 0.211552 0.0492622 0.364224 -3.31979 0.156031 0.223197 -0.0212321 
108 1 0.597608 0.245919 0.0523272 0.646941 -3.3297 0.113914 0.367616 -0.239722 
502 1 0.590796 0.201851 0.099321 0.787123 -3.31327 -0.331804 0.360643 -0.151833 
541 1 0.539752 0.254624 0.0977112 0.208809 -3.27371 0.289758 0.276744 0.218317 
102 1 0.539828 0.25444 0.996932 0.444369 -3.35965 0.485622 0.312512 0.264754 
107 1 0.648479 0.197384 0.0504204 0.380338 -3.30061 -0.00660118 0.00961489 0.150928 
509 1 0.702715 0.185915 0.105659 3.1926 -3.22352 0.153809 1.06957 -1.01587 
112 1 0.710033 0.233885 0.0469257 1.00127 -3.34988 0.322484 0.162095 0.456338 
506 1 0.654914 0.238935 0.102992 0.946266 -3.32708 0.0064956 0.31495 -0.664125 
109 1 0.704642 0.191941 0.000570769 0.353082 -3.2919 0.530941 0.0955556 0.286397 
106 1 0.651015 0.242657 1.002 1.17323 -3.2997 0.646274 0.287852 -0.3014 
115 1 0.826386 0.220297 0.0503017 0.358444 -3.26041 0.356807 0.0756005 -0.598345 
111 1 0.764519 0.183499 0.0491111 0.502173 -3.30669 -0.536987 0.19569 0.0812933 
517 1 0.833652 0.26274 0.100842 0.560083 -3.3255 -0.310443 0.20739 -0.0980317 
513 1 0.770952 0.225811 0.0958273 1.53837 -3.28106 -0.942216 0.0569773 0.670457 
116 1 0.776603 0.26761 0.0527011 1.48085 -3.3332 -0.180081 0.60076 -0.353445 
114 1 0.834864 0.265222 0.999127 0.381093 -3.27149 -0.00923226 -0.437806 0.384526 
442 1 0.993257 0.199899 0.100276 0.463636 -3.31965 0.307552 0.109685 -0.0484104 
44 1 0.936613 0.204543 0.0525551 0.941989 -3.27336 0.38865 0.586724 -0.59013 
119 1 0.891169 0.255195 0.0482772 0.34021 -3.33049 -0.378753 -0.0992504 -0.262671 
478 1 0.878612 0.212129 0.0995937 0.476948 -3.23177 0.730798 0.58558 0.364953 
481 1 0.944028 0.247911 0.0960208 0.499474 -3.29196 -0.00139101 0.0389004 0.399699 
42 1 1.00026 0.198957 1.00226 0.590228 -3.35288 0.0447699 -0.0186583 -0.175328 
81 1 0.952614 0.249193 1.00019 0.923815 -3.3172 -0.869995 -0.257666 -0.258159 
88 1 0.0688785 0.279014 0.0544895 2.18581 -3.19854 -0.284299 -0.122286 -1.01485 
123 1 0.0198838 0.325858 0.0474124 0.681572 -3.37691 0.0343282 0.0173793 0.0913498 
482 1 0.00671271 0.282788 0.0985478 0.665654 -3.3336 0.16352 0.537757 0.126659 
525 1 0.0756526 0.316326 0.101617 0.983852 -3.28815 -0.255965 0.98902 -0.221859 
82 1 0.0137776 0.283662 0.992799 1.42978 -3.28183 0.378482 0.907708 0.762989 
127 1 0.130491 0.312438 0.0505909 1.1367 -3.3318 0.439866 0.25381 -0.130925 
132 1 0.200498 0.342914 0.0529881 2.05473 -3.21259 -0.520485 0.21203 -1.0837 
526 1 0.141842 0.356264 0.0985254 1.08768 -3.29303 -0.569536 -0.460437 0.0210604 
529 1 0.195101 0.303319 0.0960716 0.484491 -3.2762 -0.652301 -0.487026 0.48979 
131 1 0.251477 0.296353 0.049156 0.328911 -3.24302 -0.377002 -0.547424 -0.501943 
136 1 0.313813 0.329053 0.0498575 0.73013 -3.23597 0.568817 0.536685 -0.544809 
533 1 0.309006 0.289253 0.0934875 1.11581 -3.30897 0.119545 -0.538155 0.831858 
135 1 0.364322 0.277419 0.0440371 0.982041 -3.29672 0.217111 0.0984161 0.653529 
530 1 0.25857 0.335747 0.0957018 0.476624 -3.19389 0.558474 0.412477 0.803555 
134 1 0.370109 0.319201 1.00009 1.11159 -3.23448 0.790778 0.655959 -0.50462 
534 1 0.377957 0.321251 0.0944651 1.12857 -3.23086 -0.868594 -0.467467 0.528745 
140 1 0.427788 0.313824 0.0463761 1.02571 -3.23632 0.866356 -0.65284 -0.231778 
538 1 0.488297 0.306053 0.0951277 0.427706 -3.33792 -0.0634077 -0.0659373 0.554717 
577 1 0.437637 0.355566 0.0989956 0.540528 -3.30572 0.434492 0.44836 -0.112393 
144 1 0.494821 0.345391 0.0490947 0.956319 -3.30799 0.388156 0.250237 -0.267123 
138 1 0.444482 0.35383 -0.00417851 1.08551 -3.34649 -0.722798 0.122906 0.25792 
143 1 0.546411 0.2983 0.0501797 0.594473 -3.31921 0.474615 -0.00946936 -0.572702 
545 1 0.604097 0.291193 0.0977575 0.252594 -3.35646 0.327761 -0.192691 0.163497 
148 1 0.615113 0.333009 0.0476801 0.308879 -3.29837 -0.0297443 -0.0942746 -0.123739 
542 1 0.557142 0.340723 0.0966284 0.511334 -3.33778 -0.658009 -0.105163 0.432472 
142 1 0.559322 0.341426 0.00210717 0.952273 -3.32731 -0.802904 -0.375175 -0.570433 
147 1 0.663293 0.285937 0.0489722 0.371274 -3.35298 -0.118978 -0.312521 -0.20076 
151 1 0.729197 0.323797 0.0496856 0.574507 -3.30532 -0.365719 -0.438741 -0.177471 
549 1 0.668675 0.329296 0.0959216 0.48021 -3.29141 0.160885 -0.398296 0.474229 
510 1 0.714171 0.280896 0.0995858 1.00967 -3.31341 0.361168 -0.379826 -0.134932 
149 1 0.723646 0.278745 8.89984e-05 0.525021 -3.32791 -0.63102 -0.519559 0.387047 
146 1 0.673117 0.325376 -0.00373638 1.11029 -3.26676 -0.020104 0.252128 0.878427 
120 1 0.838783 0.306022 0.0482214 0.490555 -3.31899 -0.0852707 -0.0154893 0.41605 
155 1 0.795194 0.359963 0.0510496 1.23459 -3.33549 -0.0253849 -0.388696 -0.129417 
514 1 0.779601 0.316631 0.0983265 0.713092 -3.31699 0.311753 -0.511578 0.117494 
557 1 0.846576 0.350149 0.10099 0.566416 -3.29873 0.404251 -0.0725402 -0.167786 
153 1 0.784545 0.314565 1.00186 0.315314 -3.2422 0.146018 0.256305 0.162184 
84 1 0.953198 0.290556 0.0484165 0.274785 -3.31459 0.330286 0.316749 -0.140125 
159 1 0.901312 0.341757 0.052658 1.30758 -3.29696 0.471808 -0.210103 -0.421075 
518 1 0.894636 0.29888 0.0962814 0.614296 -3.32236 0.177551 -0.0338564 0.35667 
521 1 0.958394 0.334091 0.101378 0.338843 -3.29046 -0.0818201 -0.335097 -0.221807 
118 1 0.896138 0.29962 -0.000397562 0.41267 -3.26915 0.666087 -0.169916 0.030122 
128 1 0.084474 0.361322 0.0520894 0.950522 -3.31546 -0.346188 -0.12146 -0.388709 
522 1 0.0197603 0.367479 0.102172 1.22873 -3.28548 0.98992 0.375602 -0.290412 
163 1 0.0387618 0.411253 0.0505546 1.12581 -3.33265 -0.896974 -0.123027 -0.221542 
168 1 0.102501 0.445034 0.0528231 1.16149 -3.28279 -0.403955 0.290074 -0.474688 
565 1 0.0909666 0.403504 0.0973607 0.567622 -3.25249 -0.240461 -0.419001 0.56662 
167 1 0.151826 0.392854 0.0444083 1.39912 -3.33373 0.289305 0.19289 0.251598 
172 1 0.220204 0.429848 0.0458992 0.998487 -3.34102 -0.493937 -0.323132 0.0642018 
569 1 0.208944 0.384753 0.0951443 0.525633 -3.22434 -0.0337415 0.822283 0.492544 
566 1 0.157274 0.431699 0.0955707 1.64737 -3.29581 0.691623 0.447551 0.359903 
171 1 0.260832 0.378501 0.0492932 1.2706 -3.31799 0.968064 0.215759 -0.766186 
176 1 0.331735 0.413612 0.0444998 0.629636 -3.33857 -0.116622 -0.407326 0.338746 
573 1 0.326764 0.370123 0.0975395 0.636687 -3.39473 -0.204988 0.136777 -0.326456 
570 1 0.275888 0.420437 0.0945458 0.362204 -3.33676 -0.00956528 -0.0707367 0.260173 
173 1 0.325048 0.370246 -0.00332963 0.382784 -3.35709 -0.140363 0.0291057 0.190784 
175 1 0.383391 0.359028 0.0455059 1.23748 -3.28779 -0.116724 0.996841 0.147799 
179 1 0.452714 0.394184 0.0487032 1.11114 -3.32048 -0.796292 0.221405 -0.169328 
578 1 0.458151 0.437331 0.10335 1.54853 -3.2717 -0.523735 0.253959 -0.685401 
574 1 0.387665 0.408921 0.0970124 1.71249 -3.3337 0.152927 -0.625566 0.107351 
180 1 0.400501 0.445301 0.0493022 0.849971 -3.28503 -0.186575 -0.0937321 -0.293189 
178 1 0.455555 0.440282 0.998267 0.595432 -3.32715 0.125083 0.0742131 0.383349 
177 1 0.390895 0.402206 1.00179 1.1744 -3.32243 0.24278 0.163747 -0.311256 
183 1 0.562778 0.380611 0.047523 0.452899 -3.29584 0.0406353 0.398441 0.206939 
184 1 0.513555 0.429985 0.0480025 0.486536 -3.29501 0.137169 0.489038 -0.133177 
581 1 0.507249 0.391893 0.0958011 1.26486 -3.23919 -0.257841 -1.03404 0.55729 
585 1 0.567757 0.424415 0.100713 0.486706 -3.2846 0.682958 0.198764 -0.00970818 
546 1 0.619435 0.372937 0.0987645 1.19109 -3.28034 -0.0149235 0.981392 0.170029 
181 1 0.508283 0.390812 0.997446 0.380117 -3.30836 -0.0174264 -0.262106 0.124457 
182 1 0.573314 0.424933 -0.00201563 0.419405 -3.36402 0.0262482 0.380635 0.254224 
187 1 0.625693 0.41786 0.0508186 0.413997 -3.34965 0.264362 0.113263 -0.137663 
553 1 0.730764 0.366932 0.0955177 0.902959 -3.27078 0.592171 -0.259833 0.665162 
152 1 0.676722 0.37324 0.0500687 0.914224 -3.27734 -0.298245 -0.319263 -0.465289 
550 1 0.684935 0.414296 0.0991981 0.381915 -3.33473 -0.231304 -0.0167421 -0.123254 
156 1 0.741917 0.405714 0.0474625 0.482758 -3.32403 0.236328 0.727939 -0.0311813 
593 1 0.750347 0.447884 0.0975305 0.67707 -3.33389 -0.192176 0.324654 -0.0317223 
150 1 0.734828 0.362513 0.00226857 0.674508 -3.28156 -0.0455857 0.195904 -0.284869 
189 1 0.686631 0.413075 -0.00197483 0.349352 -3.34891 -0.00329585 0.0532982 0.0496162 
160 1 0.864803 0.390938 0.0487481 1.82363 -3.20539 -1.10839 -0.0350863 -0.545536 
195 1 0.812173 0.440977 0.0464973 1.35601 -3.30108 -0.959037 -0.393108 -0.056119 
197 1 0.867626 0.427821 0.996622 2.00787 -3.30051 0.279675 0.443677 0.288426 
554 1 0.798785 0.402503 0.0989318 0.983989 -3.30574 -0.198422 -0.614767 -0.114072 
597 1 0.862452 0.433246 0.0993093 0.428151 -3.27265 0.0674224 0.632802 0.248584 
154 1 0.799793 0.395549 -0.000269012 0.852032 -3.31994 0.278457 0.481964 -0.138306 
124 1 0.969026 0.374433 0.0529573 0.917841 -3.34159 0.0609393 0.394628 -0.571224 
199 1 0.921052 0.428367 0.0528447 0.965561 -3.22985 0.0893176 0.10175 -0.531107 
561 1 0.974862 0.423036 0.102222 0.983546 -3.28528 -0.0408324 -0.433603 -0.176085 
558 1 0.910756 0.387101 0.0975803 1.14388 -3.22673 0.312005 -0.499098 0.881384 
203 1 0.0491602 0.497176 0.0509183 0.37251 -3.31299 -0.287584 -0.0506307 -0.111446 
605 1 0.10341 0.491181 0.0960004 2.34129 -3.27511 0.284472 -0.543964 0.309152 
602 1 0.056644 0.539691 0.10103 1.18389 -3.30797 -0.171866 -0.38562 -0.369169 
208 1 0.118755 0.527968 0.045101 1.44819 -3.23665 -0.517944 -0.201792 0.334498 
562 1 0.0394556 0.453036 0.101421 0.581143 -3.32474 0.482894 0.258528 -0.183848 
205 1 0.104704 0.487126 0.00260949 0.844477 -3.33577 0.190924 0.0487469 -0.317042 
207 1 0.169525 0.477612 0.048471 0.76314 -3.29865 -0.646415 -0.226033 0.150373 
212 1 0.231327 0.510631 0.0456533 0.452198 -3.22159 0.368655 0.524274 0.337679 
609 1 0.223629 0.467065 0.0994943 1.46142 -3.29864 0.297187 0.39704 -0.617821 
606 1 0.173824 0.518247 0.0958088 0.37183 -3.31638 0.212091 0.162115 0.201043 
206 1 0.175971 0.52245 -0.00106955 0.467295 -3.30764 -0.19837 -0.383964 -0.0679584 
211 1 0.286977 0.463407 0.0433254 1.20446 -3.25024 -0.375138 -0.316431 0.36623 
215 1 0.351577 0.499627 0.0462856 0.84905 -3.25022 -0.23115 -0.346262 -0.0488243 
613 1 0.33758 0.456571 0.0934081 0.744215 -3.24827 -0.154202 -0.208691 0.505831 
610 1 0.286985 0.503545 0.0923904 1.31367 -3.35374 0.268293 0.206048 0.792817 
174 1 0.343748 0.45451 -0.00294342 0.328892 -3.36879 -0.0516162 0.00474528 -0.0368552 
614 1 0.35678 0.538994 0.0962607 0.847469 -3.30657 -0.29234 -0.249378 0.646753 
219 1 0.459689 0.48025 0.0493548 0.602333 -3.26707 0.660814 0.343732 0.482839 
621 1 0.469875 0.523051 0.103716 0.910272 -3.40394 -0.126618 -0.0309983 -0.0775805 
220 1 0.417553 0.53407 0.0522482 0.956222 -3.30079 0.179261 -0.154327 -0.358009 
617 1 0.400605 0.487071 0.0963011 1.59662 -3.29891 0.885367 0.466723 0.698792 
188 1 0.580905 0.465049 0.0515888 1.16811 -3.29457 -0.293691 0.239968 -0.401928 
582 1 0.521171 0.471765 0.0972954 1.1563 -3.3531 -0.0271125 0.572407 0.223269 
223 1 0.523886 0.518788 0.0515058 0.829345 -3.30107 -0.151048 -0.265865 0.0436122 
586 1 0.58389 0.512031 0.0995336 0.363665 -3.29977 -0.501029 -0.285931 -0.149828 
221 1 0.520805 0.475698 0.00581487 1.75603 -3.34184 0.156561 -0.0980574 -0.501411 
191 1 0.687547 0.459315 0.0507973 1.97743 -3.24018 0.567306 -1.09929 0.156931 
192 1 0.640421 0.5022 0.0496319 1.03501 -3.2598 0.0990708 1.12596 0.0321469 
231 1 0.706701 0.541828 0.055072 1.32375 -3.32393 -0.539158 -0.219779 -0.65389 
589 1 0.632466 0.462415 0.101907 0.491235 -3.30219 -0.0913063 -0.0345096 -0.0995348 
590 1 0.697828 0.499799 0.0996675 0.282163 -3.33381 -0.00317926 -0.0529867 0.318394 
190 1 0.703298 0.496143 -0.00176322 1.0062 -3.29548 0.124869 0.732199 0.0706714 
196 1 0.754105 0.489509 0.0514815 0.95373 -3.31154 0.531981 0.281498 -0.24465 
194 1 0.806834 0.484073 0.995909 1.68667 -3.26736 0.784093 0.303979 0.527536 
235 1 0.817901 0.527291 0.0474297 0.803504 -3.33096 0.324105 -0.207917 0.261736 
200 1 0.869806 0.474919 0.0474677 0.519144 -3.31571 0.302485 0.724855 0.0525297 
594 1 0.812462 0.486224 0.101875 0.815096 -3.3345 0.0194896 -0.268894 -0.447922 
633 1 0.764476 0.535194 0.0994005 0.70566 -3.25877 -0.319312 -0.477537 0.258053 
637 1 0.878039 0.51933 0.100283 0.215751 -3.28079 -0.229715 -0.413682 -0.0596229 
164 1 0.980666 0.464948 0.051971 1.21823 -3.27209 0.410162 -0.603453 0.0448459 
239 1 0.934855 0.509983 0.0495149 0.200347 -3.29159 -0.337429 0.126495 -0.0367399 
601 1 0.991791 0.501923 0.105078 1.02197 -3.29755 0.238815 0.412717 -0.414087 
598 1 0.925786 0.471149 0.102577 0.496187 -3.29318 -0.315956 -0.349396 -0.0729739 
237 1 0.874144 0.519394 0.996743 0.605333 -3.36415 0.255324 -0.223194 0.461749 
243 1 0.0737637 0.576012 0.0524915 2.5479 -3.21787 -0.959852 0.531856 -0.244678 
642 1 0.0783084 0.61944 0.0995754 0.235107 -3.35754 0.245341 0.0525601 -0.0262906 
245 1 0.12269 0.571716 0.999854 0.541578 -3.29315 0.535365 0.182488 -0.450365 
641 1 0.00792857 0.589295 0.0968599 1.15515 -3.3679 -0.193862 -0.200251 0.263565 
244 1 0.0168695 0.630475 0.0516041 0.473025 -3.31314 0.147029 -0.239396 -0.138777 
241 1 0.00780874 0.589212 0.00521311 0.894632 -3.29711 0.292651 0.149409 -0.263066 
645 1 0.129694 0.569374 0.0952286 1.11194 -3.25328 -0.0176241 0.108542 1.00591 
204 1 7.86797e-05 0.544881 0.0481937 0.709801 -3.29622 0.0054941 -0.00746267 0.805155 
242 1 0.0760253 0.622203 1.0026 0.343873 -3.34687 -0.100049 -0.202485 -0.157324 
248 1 0.136422 0.610231 0.0467188 0.901152 -3.29302 -0.00718908 0.56981 0.267724 
247 1 0.180582 0.560482 0.0488655 0.765108 -3.20925 0.751667 0.583954 -0.416863 
649 1 0.237544 0.552672 0.0942577 0.911875 -3.34998 0.472094 0.24303 0.591198 
251 1 0.250294 0.596373 0.0496564 0.336229 -3.34929 -0.0432779 -0.0680145 0.00163158 
646 1 0.192539 0.607204 0.0996284 1.07987 -3.35643 -0.040112 -0.390684 0.13562 
249 1 0.19483 0.605694 0.997934 0.634761 -3.36048 -0.401088 -0.0759949 -0.00358569 
216 1 0.300455 0.545109 0.0485905 0.42654 -3.34505 -0.217718 0.487438 -0.202282 
255 1 0.365222 0.583548 0.0551563 1.35724 -3.26835 -0.425281 0.00190223 -0.69364 
653 1 0.30432 0.590519 0.100721 0.545168 -3.3173 -0.229165 -0.3572 -0.117023 
256 1 0.312818 0.633469 0.0489962 0.769494 -3.33945 0.80894 0.0376478 0.432791 
657 1 0.369985 0.623239 0.103248 0.759648 -3.29058 0.188219 0.728098 -0.268005 
259 1 0.427568 0.617518 0.0537683 1.01906 -3.3331 0.174372 0.613502 -0.499499 
224 1 0.481793 0.569658 0.0501334 0.595218 -3.33659 -0.130904 -0.0970908 -0.118123 
618 1 0.422715 0.573519 0.0994168 0.867564 -3.25005 0.57068 0.0868204 0.266044 
622 1 0.485923 0.613675 0.0978555 0.563275 -3.31364 -0.131721 -0.303235 0.440476 
227 1 0.584909 0.554195 0.0520191 1.69544 -3.27364 0.785103 0.400633 -0.447378 
228 1 0.54184 0.60799 0.0503745 0.655961 -3.28575 -0.118102 -0.537126 -0.153027 
625 1 0.535562 0.56302 0.101789 0.313054 -3.28414 -0.546418 -0.0326118 -0.189566 
626 1 0.60204 0.598327 0.0999164 1.05711 -3.27171 -0.570737 0.0463764 -0.0723448 
629 1 0.642637 0.550143 0.0993298 1.01833 -3.29217 0.508297 -0.338856 -0.0233151 
232 1 0.655058 0.590164 0.0460764 0.930604 -3.36881 -0.329645 0.045255 0.152584 
271 1 0.718696 0.625484 0.0476995 0.461027 -3.31164 -0.110023 0.2363 -0.254401 
630 1 0.707223 0.584653 0.101818 1.1813 -3.29388 -0.0222548 -0.0161311 -0.0512121 
669 1 0.66139 0.633464 0.0976068 0.431425 -3.27871 0.304631 0.183023 0.361054 
236 1 0.76828 0.578555 0.0563341 2.18795 -3.26526 0.305034 -0.346887 -0.882523 
275 1 0.833679 0.613887 0.0473054 0.973954 -3.3226 0.192656 0.0298605 0.751302 
634 1 0.830447 0.566147 0.100065 1.30684 -3.27653 0.0520637 0.450422 -0.209859 
673 1 0.771287 0.619751 0.0962982 1.98776 -3.19788 0.650952 0.116666 0.689506 
273 1 0.777537 0.618736 0.998308 0.575064 -3.28577 -0.172132 0.430344 0.178071 
240 1 0.886698 0.558205 0.048237 0.968671 -3.31519 -0.358665 0.243592 0.0947261 
279 1 0.947716 0.59408 0.0486362 0.79115 -3.29737 0.235728 0.397609 0.496537 
638 1 0.94289 0.550475 0.0991924 0.482247 -3.33228 0.415945 0.504207 0.33234 
677 1 0.892561 0.603796 0.100198 0.434401 -3.37923 0.0165125 -0.0431195 0.0124612 
238 1 0.945717 0.551364 0.00169295 0.738832 -3.29212 -0.266966 -0.00381936 -0.312925 
277 1 0.89261 0.605803 1.00314 0.317335 -3.2471 0.239684 0.111825 -0.0498329 
283 1 0.0862211 0.660281 0.0511262 0.600417 -3.33304 0.0774964 0.427923 0.175613 
284 1 0.032512 0.715946 0.0492879 1.01665 -3.26979 0.642502 -0.573767 0.224 
681 1 0.0264619 0.667138 0.102638 1.17105 -3.28139 0.307618 0.667844 -0.457904 
682 1 0.0931046 0.704161 0.100469 0.135056 -3.36399 0.0158826 -0.000461481 -0.396459 
285 1 0.0944887 0.706931 1.00355 0.883448 -3.34186 -0.223084 0.181136 -0.302749 
281 1 0.0284431 0.67182 0.00329064 0.223135 -3.31009 0.0217795 -0.0135659 -0.191906 
685 1 0.145932 0.654749 0.0995023 0.486761 -3.36488 -0.18315 -0.0625844 0.16237 
252 1 0.198955 0.644903 0.0471693 1.19947 -3.33644 0.474892 0.420804 0.174965 
287 1 0.151318 0.695953 0.0489814 0.651909 -3.28474 -0.184317 0.25587 0.34394 
689 1 0.206089 0.694254 0.0985725 1.0694 -3.22612 -0.330045 -0.904491 0.250064 
246 1 0.142182 0.658759 0.998736 0.652279 -3.28403 0.0393876 -0.265253 0.199042 
650 1 0.257614 0.641509 0.0996053 0.286383 -3.31409 -0.527713 -0.00947894 -0.058922 
291 1 0.263447 0.684867 0.0491913 0.584438 -3.2479 0.0357588 -0.490689 0.56765 
260 1 0.381876 0.673009 0.054712 2.11792 -3.29696 -0.555182 -0.946758 -0.213519 
654 1 0.321816 0.673891 0.103059 0.867963 -3.29132 0.216145 0.525439 -0.390614 
295 1 0.327498 0.719168 0.0494889 0.375612 -3.32919 0.267824 0.326521 0.426005 
693 1 0.267715 0.72547 0.097245 0.862601 -3.29274 1.00517 0.547308 0.646726 
264 1 0.443146 0.706094 0.046663 1.11512 -3.25544 0.365572 0.194746 0.44751 
263 1 0.491661 0.656129 0.0487888 0.190776 -3.31397 -0.0948444 -0.00875753 0.0422131 
658 1 0.387376 0.712434 0.102591 0.267758 -3.33792 -0.379479 0.0309333 0.0488718 
661 1 0.437589 0.662874 0.105122 0.957651 -3.29847 -0.40175 -0.224706 -0.426245 
662 1 0.496914 0.698662 0.101927 0.463161 -3.30534 0.15527 0.390195 -0.286673 
262 1 0.50249 0.696569 0.998013 0.709221 -3.31056 -0.233382 0.270452 0.080742 
258 1 0.437965 0.661422 1.00161 0.382686 -3.25764 -0.0684939 -0.0284791 0.0209975 
267 1 0.60381 0.639845 0.0499871 0.736928 -3.29915 0.508021 0.389995 -0.191993 
268 1 0.555625 0.692813 0.0485004 0.381151 -3.32837 -0.127459 -0.0103793 0.0305989 
666 1 0.612896 0.68429 0.0968749 0.448908 -3.29107 -0.35559 -0.117336 0.4673 
665 1 0.545367 0.651823 0.0975736 1.2019 -3.28897 0.534224 -0.0986294 0.416601 
307 1 0.622338 0.724402 0.0483679 0.876004 -3.29907 -0.386872 0.372525 0.200147 
272 1 0.672556 0.674897 0.0487522 0.483137 -3.33039 -0.137836 -0.127374 -0.136798 
270 1 0.729854 0.671686 0.997245 0.587772 -3.3243 -0.56937 -0.38536 0.0954074 
311 1 0.732533 0.712307 0.0510934 0.401878 -3.33551 0.153639 -0.0838126 -0.249743 
670 1 0.7271 0.665693 0.101049 0.627787 -3.28802 -0.0430838 0.364916 -0.0384098 
709 1 0.677772 0.715523 0.0997356 0.677217 -3.28804 0.231698 0.459912 0.209239 
276 1 0.78325 0.661272 0.0456263 0.910798 -3.34298 0.0401402 0.212677 0.542424 
315 1 0.847866 0.696902 0.051407 0.589425 -3.35358 0.000518022 -0.12461 0.396123 
674 1 0.838659 0.651959 0.104562 1.86532 -3.32305 0.234169 0.242551 -0.680165 
713 1 0.78674 0.703536 0.10144 0.804667 -3.37218 0.505651 0.0625158 -0.127415 
313 1 0.789134 0.706139 -0.001588 0.981242 -3.24684 0.310518 -0.340873 0.366884 
280 1 0.901911 0.649603 0.0505617 0.702944 -3.34048 -0.331756 -0.407004 0.167173 
319 1 0.970841 0.680679 0.0512661 0.419513 -3.312 -0.247388 0.093007 0.18732 
678 1 0.958701 0.639317 0.0971471 0.891204 -3.27905 -0.391112 -0.420647 0.480237 
717 1 0.906124 0.689044 0.100564 0.479123 -3.38647 0.198539 0.156909 -0.0441175 
318 1 0.981156 0.720611 0.999727 1.14821 -3.27395 -0.508856 0.226705 -0.00824045 
320 1 0.916165 0.730963 0.0506994 0.464704 -3.31531 0.111541 -0.458407 0.108932 