ITEM: TIMESTEP
18750
ITEM: NUMBER OF ATOMS
4000
ITEM: BOX BOUNDS pp pp pp
3.7358766472711471e+00 3.6764123352728276e+01
-3.9079774088880392e+00 4.4407977408887071e+01
-5.7037481948953028e-01 4.1070374819490141e+01
ITEM: ATOMS id type xs ys zs c_csym c_peratom fx fy fz 
7 1 0.0897984 0.060955 0.0497917 0.575762 -3.29245 0.0367582 -0.242815 0.157129 
3 1 0.0295123 0.022626 0.0493486 0.444873 -3.27842 -0.106544 0.0871208 -0.0548234 
2 1 0.0353831 0.0673261 -0.000770015 0.260362 -3.272 -0.0256481 -0.212599 -0.286849 
5 1 0.0826204 0.0206354 -0.00342015 1.49818 -3.33892 0.275894 -0.439212 0.246375 
11 1 0.203788 0.0466883 0.0538963 0.960775 -3.24633 0.533177 0.494829 -0.335665 
372 1 0.143326 0.0117775 0.0471163 0.868651 -3.28336 -0.697516 -0.324315 0.0789774 
10 1 0.224656 0.0888118 0.000612992 2.24404 -3.30959 -0.760724 -0.0833212 0.273011 
12 1 0.154807 0.0931867 0.0473992 1.32118 -3.27869 0.572057 0.614119 0.525723 
9 1 0.153092 0.0537214 0.00260204 0.923786 -3.30617 -0.00658428 -0.227375 -0.737535 
16 1 0.272942 0.0777227 0.0544801 2.19131 -3.3128 0.0490391 0.182105 -0.271183 
15 1 0.323134 0.0297258 0.0485977 1.02345 -3.26885 -0.305647 0.0764491 0.636253 
14 1 0.326104 0.0768657 0.99868 1.3434 -3.28228 0.0651096 -0.0607183 0.581362 
20 1 0.384553 0.06575 0.0527705 0.535041 -3.33538 -0.00444782 0.312898 0.106466 
19 1 0.436732 0.0146719 0.048048 0.906578 -3.31316 -0.191134 0.0571691 0.249077 
24 1 0.498721 0.0502322 0.0565243 1.66876 -3.26819 0.276437 -0.530642 -0.239999 
28 1 0.615456 0.0345363 0.0503656 0.487572 -3.31728 0.152445 -0.265208 0.119372 
63 1 0.563414 0.08216 0.0492132 1.22733 -3.31989 0.447955 0.613563 0.572453 
461 1 0.503961 0.0918975 0.102501 1.47676 -3.27388 1.06861 0.440052 0.465348 
32 1 0.734472 0.0210368 0.047512 0.626459 -3.34507 0.155965 -0.489081 0.450996 
67 1 0.681947 0.0701865 0.0502906 0.583651 -3.35226 0.393289 0.16293 0.0775427 
426 1 0.677633 0.02494 0.0990088 0.291721 -3.27884 0.343346 0.290982 -0.231107 
36 1 0.803243 0.0535248 0.0503586 0.209681 -3.28201 -0.469628 -0.153198 0.0510829 
434 1 0.861477 0.0467712 0.0983389 0.84441 -3.2652 -0.296833 -0.400348 0.487607 
75 1 0.869388 0.0858136 0.0496176 0.59327 -3.26519 -0.23222 0.514002 -0.0231397 
34 1 0.857776 0.0473496 0.00271179 0.979292 -3.29555 0.55055 -0.154515 -0.389579 
35 1 0.852072 0.00356286 0.0539396 0.749523 -3.26651 -0.237753 -0.288502 -0.431143 
4 1 0.981528 0.0743832 0.0481811 0.416323 -3.31645 0.077473 -0.106375 0.711424 
40 1 0.917336 0.0349298 0.0518224 0.921549 -3.28944 0.248805 0.385836 -0.0766342 
438 1 0.922235 0.0817815 0.0995093 0.24214 -3.3154 0.245029 -0.158856 0.361464 
8 1 0.0432421 0.112307 0.0471398 1.30004 -3.32004 0.073168 -0.431768 0.520264 
47 1 0.10959 0.143232 0.0500619 0.875675 -3.31987 0.147868 0.274166 -0.257544 
6 1 0.100736 0.0990751 -0.00185303 1.35773 -3.27851 0.0716668 0.615217 0.0156357 
446 1 0.108194 0.190559 0.104054 2.16556 -3.25545 0.855502 0.103081 -0.733805 
52 1 0.171111 0.184149 0.0506777 0.689715 -3.33694 -0.0348974 -0.289136 0.0982071 
51 1 0.221916 0.130535 0.0496176 0.743583 -3.34128 -0.160539 0.244355 -0.0680436 
449 1 0.161977 0.14146 0.0996222 0.762638 -3.31614 0.108437 -0.101495 0.0784291 
49 1 0.166634 0.138249 0.99914 0.469519 -3.35788 0.363651 0.0347289 0.224255 
55 1 0.336482 0.116437 0.0495313 0.491861 -3.32045 0.276193 -0.181714 0.25101 
56 1 0.290883 0.165125 0.0500886 0.896223 -3.28268 -0.400826 0.200976 0.0748189 
59 1 0.454201 0.0961637 0.0531227 1.54831 -3.26829 -0.336516 0.844335 -0.16368 
60 1 0.402933 0.152876 0.0514953 1.11835 -3.2254 -0.102202 -0.650861 -0.606466 
458 1 0.462143 0.145479 0.1002 1.1304 -3.22818 -0.192791 -0.51797 0.827995 
58 1 0.466548 0.136239 1.00264 2.43956 -3.35229 0.0288309 0.367288 -0.0342634 
57 1 0.393384 0.11123 1.00194 1.10775 -3.31474 0.211827 -0.200516 -0.026054 
97 1 0.419458 0.190873 0.999339 1.34483 -3.20602 -1.21963 -0.630348 0.0805209 
64 1 0.520581 0.135143 0.0569028 2.40759 -3.24338 -0.0286359 -0.649052 -0.996188 
103 1 0.587031 0.167938 0.0496932 0.658067 -3.31224 0.00236794 0.0308627 0.215076 
462 1 0.575756 0.124867 0.102202 0.401282 -3.32402 0.0953999 -0.271209 0.160518 
501 1 0.531378 0.175287 0.1 1.27603 -3.28474 -0.220326 0.400593 0.480812 
68 1 0.635088 0.119364 0.0514589 0.2444 -3.37883 -0.0346222 -0.233333 0.0422375 
72 1 0.70446 0.154732 0.0533394 0.585787 -3.33702 -0.375722 -0.150567 -0.341627 
71 1 0.752859 0.104991 0.0519131 0.44157 -3.38368 -0.245021 -0.181207 -0.0543303 
505 1 0.644977 0.16103 0.0991999 0.588247 -3.31725 -0.240519 0.00661843 0.170097 
66 1 0.643257 0.160675 1.00107 0.33818 -3.29565 -0.375578 -0.0965317 0.390129 
473 1 0.80953 0.0898426 0.0999629 2.53839 -3.26458 0.241883 1.19935 -0.0507899 
76 1 0.820063 0.139906 0.0523976 0.549695 -3.3016 -0.0900063 -0.320108 -0.0852415 
470 1 0.762068 0.149105 0.0992651 1.0218 -3.29289 0.324114 -0.205941 0.434413 
477 1 0.872986 0.130465 0.100116 0.264128 -3.30418 -0.233683 -0.096233 0.0453936 
80 1 0.886192 0.17381 0.0489279 1.36975 -3.30601 -0.409098 -0.0382891 -0.139916 
74 1 0.87723 0.128469 -0.00243251 1.20574 -3.2972 -0.372652 0.32837 0.264166 
70 1 0.761018 0.145246 0.0036292 0.500839 -3.30619 -0.400481 -0.167347 -0.149698 
113 1 0.820917 0.181179 0.0068872 1.65662 -3.31655 0.601661 0.232788 -0.644551 
73 1 0.809522 0.0973194 0.00104623 0.360485 -3.35919 0.0187379 -0.176192 -0.0859877 
43 1 0.991571 0.159299 0.0556286 2.13748 -3.30917 -0.112633 0.357853 -0.46177 
79 1 0.930168 0.122772 0.0506872 0.337803 -3.27552 -0.027095 0.182176 -0.258845 
402 1 0.983076 0.117828 0.0990124 0.825759 -3.31709 0.63886 -0.219573 0.449943 
48 1 0.0574106 0.193472 0.0508458 0.597305 -3.28003 0.16441 0.0468192 -0.260383 
83 1 0.00781908 0.246638 0.0478076 0.410417 -3.28095 -0.067821 0.0303212 -0.0535078 
87 1 0.116492 0.230972 0.0446092 1.46118 -3.28572 0.531011 0.121964 0.555308 
42 1 1.00055 0.200272 -0.000694522 0.571463 -3.25139 -0.451642 0.50584 0.354943 
88 1 0.0731664 0.280909 0.0490353 1.3526 -3.24889 -0.734159 0.310934 -0.241655 
46 1 0.116057 0.187515 1.00133 0.596876 -3.30524 -0.544494 -0.161666 0.0712996 
85 1 0.0562623 0.237574 -0.00323358 1.37265 -3.27009 0.266774 0.141658 -0.00413294 
91 1 0.240714 0.215749 0.0461143 0.936639 -3.317 -0.0281689 0.494099 0.81499 
92 1 0.186883 0.265949 0.0466302 0.390145 -3.35225 -0.219265 -0.130756 0.108875 
89 1 0.177094 0.225431 -0.000335583 0.277018 -3.30004 0.030529 0.000587972 0.126166 
90 1 0.245308 0.259523 -0.00250696 0.244914 -3.3345 -0.00244467 -0.0771097 0.241211 
86 1 0.120406 0.271622 -0.00181718 1.43973 -3.26157 1.02417 0.3053 0.150156 
95 1 0.350547 0.20077 0.0482782 1.06506 -3.3301 0.441857 0.246093 -0.0816821 
96 1 0.30638 0.251073 0.0476064 0.258824 -3.35204 -0.270211 -0.145007 0.0689708 
94 1 0.364046 0.240819 0.998516 0.265976 -3.34074 -0.0166395 0.236041 0.0645441 
93 1 0.294861 0.20969 -0.00425134 0.769542 -3.21943 0.784466 0.361961 0.536718 
99 1 0.469652 0.179663 0.0508291 1.25609 -3.23979 0.800645 0.938873 -0.310776 
100 1 0.422468 0.230687 0.0476813 0.391698 -3.32558 -0.187103 0.102546 0.375813 
139 1 0.489387 0.263496 0.0488484 0.79495 -3.2852 -0.207792 0.69687 -0.0718774 
497 1 0.414542 0.19209 0.101425 0.427679 -3.2327 -0.198115 0.292815 -0.153611 
498 1 0.478286 0.224686 0.103175 0.531124 -3.31303 0.449139 0.0644434 -0.241732 
98 1 0.477576 0.223469 0.000123057 0.523988 -3.23517 1.08464 0.593159 -0.181711 
104 1 0.534021 0.219315 0.0523373 0.836604 -3.2949 0.111177 -0.916728 0.0383532 
108 1 0.596492 0.253856 0.0531848 0.898645 -3.29669 0.383506 -0.0350478 -0.09778 
102 1 0.547994 0.257687 -0.00100189 0.933341 -3.31688 -0.474479 0.327526 -0.0538887 
105 1 0.593724 0.209821 1.0056 1.26243 -3.30845 0.208442 0.0105875 -0.534048 
107 1 0.650191 0.206376 0.0535475 0.741973 -3.27059 -0.326773 -0.619015 -0.504022 
509 1 0.706802 0.199597 0.0991606 1.16485 -3.22307 0.437888 -0.460867 0.522602 
112 1 0.713961 0.239596 0.0536347 0.32509 -3.23349 0.468036 0.226586 -0.685532 
115 1 0.832973 0.224514 0.0505361 1.35305 -3.25105 0.192256 -0.0446315 0.152392 
111 1 0.767623 0.192957 0.0565823 1.27972 -3.24188 -0.0909344 -0.428485 -0.13477 
513 1 0.774411 0.233411 0.104002 0.511922 -3.35905 0.193401 0.0798623 -0.00431015 
116 1 0.779466 0.272512 0.0501984 0.959766 -3.32457 -0.0206351 0.175975 0.335652 
44 1 0.942922 0.212159 0.0502921 1.06536 -3.30213 0.0156059 -0.162025 -0.224694 
119 1 0.889765 0.262431 0.0523091 1.30878 -3.2648 0.629286 -0.192936 -0.17685 
481 1 0.957532 0.247469 0.0990023 3.63529 -3.24756 -0.526993 0.458994 0.46574 
81 1 0.952449 0.2538 0.997685 0.615035 -3.24188 -0.103525 0.208557 0.476749 
117 1 0.890614 0.221647 -0.00384702 2.70912 -3.22922 -1.24243 -0.499977 1.00659 
123 1 0.020864 0.332616 0.0481025 0.493858 -3.31907 -0.553782 -0.0457577 0.0113132 
482 1 0.0094194 0.289223 0.103013 1.69436 -3.3144 0.364813 0.353072 -0.644744 
82 1 0.00864874 0.291837 0.998323 1.35875 -3.30806 0.306218 -0.226992 -0.0872676 
128 1 0.0837993 0.36843 0.0487803 0.483262 -3.2935 0.0577749 -0.0895964 -0.0412469 
122 1 0.0241618 0.376366 1.00021 1.04671 -3.27584 0.476451 -0.572907 0.0115349 
127 1 0.135663 0.318527 0.0434937 1.25013 -3.30616 0.138781 -0.144878 0.647995 
132 1 0.206209 0.351898 0.0495951 0.76677 -3.33832 -0.5875 -0.33779 0.157837 
129 1 0.198363 0.30887 1.00185 1.12426 -3.33624 -0.340261 -0.278047 -0.294191 
126 1 0.144221 0.355318 -0.00363246 0.782059 -3.29697 0.0872591 0.325516 0.355078 
131 1 0.255888 0.298332 0.0487578 0.670441 -3.31719 0.112881 0.448076 -0.0960924 
136 1 0.328955 0.330343 0.0453686 2.02051 -3.26661 -0.795467 0.302918 0.415046 
135 1 0.373574 0.282117 0.0491235 0.289114 -3.32076 0.0824421 -0.16243 -0.249029 
130 1 0.263238 0.343679 1.00312 1.5431 -3.27943 0.0287057 -0.45008 -0.464725 
133 1 0.313055 0.293573 -0.00276334 0.485251 -3.34928 0.0664083 -0.392138 0.050546 
140 1 0.440047 0.315594 0.050863 0.429087 -3.32101 -0.0706115 -0.0342231 -0.315414 
538 1 0.494101 0.307851 0.103221 0.861375 -3.25034 0.225914 0.11511 -0.728802 
577 1 0.443089 0.360952 0.103357 1.27462 -3.30037 -0.116573 -0.186563 -0.608847 
144 1 0.500606 0.351137 0.0504287 0.5985 -3.34003 0.0876797 0.183657 0.0198128 
137 1 0.431608 0.273073 -0.00379075 0.278774 -3.37592 -0.176493 0.313719 0.242013 
141 1 0.495883 0.308893 -0.00272954 0.273393 -3.35579 -0.0953191 -0.166983 0.414854 
143 1 0.549373 0.302156 0.0498561 0.502983 -3.32973 -0.21672 0.0622259 0.208102 
148 1 0.61293 0.338495 0.0503931 0.525999 -3.25297 0.389728 -0.199194 0.369785 
147 1 0.663215 0.287503 0.0485713 0.528401 -3.30003 0.279021 0.135029 0.678888 
151 1 0.72911 0.32423 0.0511362 0.102136 -3.35477 0.0742069 -0.20167 0.0116039 
150 1 0.734919 0.366873 0.000575083 0.191449 -3.31408 0.164102 -0.286669 0.0380982 
120 1 0.843059 0.306798 0.0497061 1.43443 -3.27693 0.162365 0.800158 0.231332 
155 1 0.79371 0.358858 0.054408 0.875199 -3.2572 -0.423488 -0.15887 -0.600391 
514 1 0.785608 0.316207 0.101824 0.566769 -3.30348 -0.157305 0.347047 0.20771 
84 1 0.955657 0.298287 0.0490543 0.491252 -3.35005 -0.223146 -0.144727 0.0459847 
159 1 0.904581 0.346801 0.0517848 0.741006 -3.34568 0.0689436 -0.153662 -0.450107 
518 1 0.902008 0.299193 0.102225 1.54022 -3.28888 0.361215 0.297818 0.185877 
121 1 0.962295 0.339584 -0.00607014 0.846165 -3.23379 0.417405 0.101653 0.680865 
163 1 0.0324707 0.417787 0.0480015 0.884392 -3.30027 0.693046 -0.160515 0.481877 
168 1 0.108083 0.450936 0.0465926 1.39654 -3.32231 -0.211885 -0.533742 0.0506239 
562 1 0.0465421 0.454705 0.099425 1.52046 -3.28394 -0.483647 0.373636 -0.344544 
165 1 0.0943218 0.406292 1.00251 0.684015 -3.32227 0.202915 0.0536676 -0.201678 
167 1 0.154242 0.399053 0.0525476 0.832466 -3.33478 0.198505 0.194868 -0.488535 
172 1 0.220327 0.43262 0.0501451 0.691728 -3.36496 -0.172324 0.121621 -0.180813 
166 1 0.164369 0.437898 0.997237 1.06496 -3.31467 -0.313533 0.099282 0.452073 
169 1 0.211823 0.389621 -0.00325366 0.558463 -3.34416 -0.180473 0.160191 0.195145 
171 1 0.274082 0.382316 0.0482062 0.309538 -3.23191 0.0928856 -0.0476797 0.342851 
176 1 0.339467 0.417088 0.0479913 0.673632 -3.24909 0.0521633 -0.293874 0.389485 
170 1 0.280405 0.420119 1.0034 2.31486 -3.27134 -0.248682 0.519008 -0.913455 
175 1 0.390397 0.366406 0.0495162 0.545303 -3.30859 -0.171311 -0.107452 0.0819874 
179 1 0.443177 0.406164 0.0509935 2.18324 -3.24962 0.618714 -0.225207 -0.139552 
180 1 0.400264 0.453706 0.0473861 0.580462 -3.21003 0.331023 -0.180566 0.0138001 
177 1 0.39185 0.411889 1.00082 1.07045 -3.30149 0.481936 -0.385509 -0.689163 
183 1 0.567624 0.38493 0.0542191 1.35877 -3.31336 -0.248069 0.483646 -0.465514 
184 1 0.509874 0.443177 0.0508215 3.4112 -3.24057 0.694125 -0.71127 -0.257927 
581 1 0.504656 0.395987 0.0959777 1.84017 -3.26276 0.170649 -0.336622 0.217044 
185 1 0.626891 0.379192 0.000306803 0.957285 -3.26572 -0.554891 0.267364 0.0283475 
187 1 0.631278 0.423225 0.049023 0.403612 -3.28341 -0.538175 -0.211262 0.194686 
152 1 0.679857 0.373478 0.0523694 0.504601 -3.23981 0.155583 -0.315705 -0.738893 
550 1 0.691774 0.414998 0.0934688 2.56179 -3.16733 -0.498319 0.405249 1.17027 
156 1 0.746185 0.408564 0.0484149 0.543229 -3.2519 0.164915 -0.110123 -0.0352804 
189 1 0.685877 0.415468 -0.000976068 0.400985 -3.30305 0.114422 0.219668 -0.00236071 
191 1 0.694167 0.455715 0.0472777 1.34072 -3.2863 0.329157 0.996179 -0.0389395 
160 1 0.85074 0.396143 0.0489998 0.721413 -3.28325 0.467111 0.262098 0.201053 
195 1 0.806142 0.446391 0.0494749 0.284237 -3.3224 0.276128 0.319351 0.160209 
197 1 0.867056 0.440704 1.0002 0.68566 -3.31518 -0.479833 -0.348804 -0.159872 
154 1 0.798255 0.401144 0.000523065 0.457154 -3.28964 0.502159 0.19834 -0.342094 
193 1 0.754833 0.453163 1.0001 0.766076 -3.27376 -0.634749 -0.149754 0.0311084 
124 1 0.97069 0.382683 0.0488939 0.390525 -3.30078 -0.468397 -0.529433 0.186553 
199 1 0.916958 0.430889 0.0487423 0.351082 -3.28872 -0.0996537 -0.134188 0.484098 
561 1 0.974538 0.421804 0.0997287 0.647655 -3.33175 0.111363 0.325018 0.159131 
161 1 0.973092 0.423863 0.00065492 0.710585 -3.27148 0.360852 0.341162 -0.162067 
203 1 0.0538812 0.495317 0.0504607 1.40038 -3.33681 -0.298768 0.256281 -0.16661 
602 1 0.0558872 0.54297 0.095084 0.922366 -3.32556 -0.0104837 -0.0853255 0.443849 
208 1 0.113302 0.535448 0.0480514 1.39062 -3.34306 0.430289 -0.405886 -0.228297 
204 1 -0.00391713 0.550045 0.0482586 0.709499 -3.18032 0.874518 0.435358 0.204096 
162 1 0.0448538 0.455647 9.63146e-05 0.613473 -3.30788 -0.283802 0.365329 0.188505 
207 1 0.173411 0.484965 0.0440999 1.42361 -3.32712 -0.164781 -0.376284 0.331881 
212 1 0.237687 0.518165 0.0465555 0.746688 -3.28868 -0.118121 -0.28046 0.300991 
209 1 0.22936 0.472752 0.993786 1.23394 -3.32102 0.224374 0.108859 0.502549 
211 1 0.284147 0.467489 0.046702 0.849125 -3.3206 -0.103793 0.0343061 -0.177907 
215 1 0.352563 0.498899 0.0480064 0.630145 -3.29698 0.112408 0.665922 -0.166532 
613 1 0.347525 0.45894 0.0953919 1.17754 -3.20357 -0.212953 0.0475917 0.65374 
219 1 0.461544 0.487823 0.0492486 1.13153 -3.29532 0.201885 0.474541 0.0468207 
621 1 0.476157 0.530091 0.100914 0.807116 -3.33094 -0.156155 -0.24446 0.205272 
220 1 0.41752 0.540455 0.0511425 1.41318 -3.30013 -0.101849 -0.670278 -0.342566 
617 1 0.406607 0.494129 0.100804 0.766299 -3.32927 0.532269 0.302358 -0.255019 
188 1 0.581526 0.471361 0.0484619 0.699016 -3.29589 0.0362095 0.122979 0.120594 
582 1 0.531843 0.479365 0.0996848 3.03533 -3.27678 -0.878845 0.16644 0.128236 
223 1 0.52732 0.520612 0.0527609 1.51391 -3.29255 0.605747 0.182076 -0.553519 
586 1 0.590188 0.518342 0.0973759 1.18626 -3.28958 -0.3396 -0.116506 0.319426 
192 1 0.643261 0.508565 0.0481402 0.377393 -3.30638 0.104346 0.180303 -0.0572473 
231 1 0.707383 0.546667 0.0510676 0.43996 -3.28787 -0.611388 0.278602 -0.252206 
589 1 0.635939 0.463377 0.100534 0.832105 -3.37251 0.0267671 0.238003 -0.123411 
590 1 0.695846 0.505878 0.0977625 1.41311 -3.30427 -0.0735788 -0.596387 0.486483 
186 1 0.636281 0.467916 0.998626 0.614692 -3.23217 -0.0233141 -0.15089 0.360935 
196 1 0.754346 0.501337 0.0515353 2.20701 -3.30509 0.297423 -1.16167 -0.331391 
194 1 0.814274 0.489041 -0.00202431 0.232213 -3.3125 0.19594 0.0730906 0.554662 
235 1 0.819456 0.535567 0.0464535 1.53098 -3.18545 -0.27713 -1.03658 0.689021 
200 1 0.872536 0.481871 0.0510632 0.514922 -3.35209 -0.272965 0.15067 -0.238914 
233 1 0.76353 0.538613 -0.00147249 0.356077 -3.2827 0.145158 0.23122 0.107446 
164 1 0.98243 0.461962 0.0514311 1.35078 -3.30149 0.342936 0.841144 0.0478414 
239 1 0.933218 0.520491 0.048547 1.22767 -3.23247 -0.659088 -0.744981 0.128136 
601 1 0.990756 0.50909 0.0964228 0.827216 -3.32489 -0.04016 -0.160462 -0.0203706 
237 1 0.873525 0.526293 -0.000676923 0.918071 -3.29486 0.860039 -0.186509 -0.0810344 
201 1 0.993774 0.508148 1.00489 1.47798 -3.28728 0.070863 -0.399734 -0.415204 
198 1 0.92926 0.476621 -2.87619e-05 0.848103 -3.29413 -0.343818 -0.0567447 0.225083 
243 1 0.0632917 0.582049 0.0445938 0.9618 -3.2973 0.138068 0.415873 0.298701 
641 1 0.00419278 0.590669 0.0984268 0.879007 -3.34347 0.814702 0.384747 0.171557 
244 1 0.0211118 0.632901 0.0480049 1.0384 -3.33336 -0.709947 -0.400312 0.0900736 
242 1 0.0715807 0.628238 -0.00644143 1.61882 -3.28715 -0.0656413 -0.466324 0.140178 
248 1 0.128805 0.619888 0.0471859 1.13128 -3.29772 -0.338663 -0.259405 0.386259 
247 1 0.186399 0.565906 0.0532665 1.11274 -3.27146 -0.357975 0.139237 -0.578583 
251 1 0.250979 0.599915 0.057249 2.24998 -3.26091 -0.109909 0.332597 -0.685396 
249 1 0.191562 0.612986 1.00823 4.30129 -3.26099 0.504774 -0.807163 -1.02929 
210 1 0.245418 0.561487 1.00383 1.08447 -3.32587 -0.507152 0.0396205 -0.532511 
216 1 0.302365 0.551648 0.0506339 0.407869 -3.30069 0.0253245 -0.252757 -0.0484873 
255 1 0.364161 0.585776 0.0485105 0.675297 -3.30689 0.517636 0.40607 0.151456 
653 1 0.309345 0.596649 0.0998464 0.917146 -3.21969 -0.279026 -0.81922 0.0380107 
657 1 0.371914 0.626822 0.0988932 0.755247 -3.287 0.467056 0.486662 -0.165205 
259 1 0.433821 0.623072 0.0485753 0.776504 -3.28363 -0.941863 -0.455182 0.170098 
224 1 0.483177 0.571374 0.0521098 1.05089 -3.1991 -0.11862 0.159646 -0.53606 
261 1 0.487886 0.616245 1.00145 0.510634 -3.2005 -0.202344 -0.00187122 -0.561296 
257 1 0.426871 0.579279 0.000264957 0.469482 -3.33126 -0.154502 -0.459312 0.0869329 
227 1 0.591452 0.561514 0.0506637 0.317086 -3.38696 -0.122748 -0.152558 -0.211887 
228 1 0.537963 0.611863 0.0488266 0.632659 -3.29556 1.01605 0.0777067 0.184391 
625 1 0.53376 0.572422 0.100503 1.5642 -3.28739 0.170589 -0.597975 0.24482 
226 1 0.602194 0.602365 0.999632 1.15213 -3.33367 -0.406388 -0.102564 0.117601 
629 1 0.649289 0.555583 0.102218 0.506764 -3.21159 -0.576888 -0.326329 -0.354096 
232 1 0.653507 0.598467 0.0523045 0.596307 -3.28142 -0.205796 -0.36557 0.0137952 
271 1 0.717279 0.631313 0.0518448 0.389595 -3.28635 0.793092 0.107449 0.184123 
630 1 0.711608 0.585865 0.102534 0.737673 -3.22682 0.350356 0.605785 -0.151756 
230 1 0.711662 0.591898 1.00354 1.5702 -3.30011 0.00669641 -0.540394 -0.202749 
229 1 0.652904 0.552282 -0.00148769 0.566044 -3.33447 -0.489965 -0.112818 0.262394 
269 1 0.664159 0.639303 0.00440698 0.830035 -3.27403 -0.567747 0.188151 -0.550629 
236 1 0.770169 0.580259 0.0544615 0.852996 -3.27448 -0.232401 0.443332 -0.558667 
275 1 0.832783 0.615661 0.0509588 0.262418 -3.30095 -0.042566 0.190719 -0.108217 
634 1 0.82655 0.575313 0.100649 0.350165 -3.31459 0.264701 -0.25681 0.35215 
673 1 0.773621 0.620668 0.104402 1.38946 -3.3149 0.347406 0.599223 -0.489294 
240 1 0.882012 0.566243 0.0484354 0.345058 -3.25216 0.781068 0.520465 0.252809 
279 1 0.949911 0.598839 0.0498027 0.557164 -3.34246 -0.0578941 0.474789 -0.434748 
277 1 0.891608 0.6095 -0.00388159 0.794805 -3.35928 0.237856 0.0115284 0.558727 
283 1 0.0794371 0.667796 0.044811 0.833406 -3.24097 0.532052 0.167438 0.414027 
284 1 0.0324918 0.71761 0.0500166 0.471192 -3.30797 0.435648 -0.0841972 0.0486357 
681 1 0.0273875 0.673208 0.0991965 0.689752 -3.33393 0.260842 0.596705 -0.0775238 
285 1 0.0928309 0.706449 -0.00582975 1.33849 -3.26325 -0.378886 0.526143 0.156558 
685 1 0.144632 0.6592 0.096003 0.939041 -3.25223 -0.600825 -0.282815 0.544797 
252 1 0.195692 0.653763 0.0482318 0.810555 -3.19932 0.505566 -0.215296 -0.116826 
287 1 0.145748 0.700128 0.0428285 1.06154 -3.27063 0.533638 0.297862 0.338207 
689 1 0.205327 0.693121 0.094092 0.915377 -3.2541 0.104412 0.335656 0.499864 
246 1 0.138589 0.657262 -0.00384001 0.701406 -3.29225 0.39915 0.246851 -0.337517 
289 1 0.204741 0.693578 -0.00544324 0.607337 -3.33972 0.0471054 -0.0365378 0.148966 
250 1 0.261229 0.644239 -0.00240669 1.5451 -3.298 -0.502285 -0.198042 0.0736129 
256 1 0.313325 0.637802 0.0492415 0.576211 -3.31073 -0.0638618 -0.187395 -0.0157225 
650 1 0.254928 0.64431 0.100433 0.579278 -3.34455 -0.20847 0.177629 -0.165534 
291 1 0.26101 0.684888 0.0458296 0.712904 -3.28216 0.499867 0.319822 0.198264 
654 1 0.320875 0.677301 0.100883 0.587265 -3.32797 -0.0468361 0.319299 0.0240192 
295 1 0.325865 0.721371 0.0491489 0.564067 -3.28616 -0.209426 0.28198 0.41332 
693 1 0.26722 0.729794 0.0973318 0.617431 -3.26564 0.718859 -0.105978 0.0208378 
260 1 0.374589 0.672957 0.0521244 0.604599 -3.28313 0.461169 0.0346734 -0.581624 
264 1 0.437324 0.710235 0.0512718 0.59317 -3.32371 -0.127104 0.0811199 -0.43367 
263 1 0.488521 0.661388 0.0496713 0.460694 -3.2629 0.707397 0.326428 -0.178934 
661 1 0.429795 0.665848 0.0990256 0.831197 -3.26742 0.015581 0.108705 0.109912 
258 1 0.437994 0.666144 0.999302 0.645229 -3.31862 -0.782172 0.0638767 0.0774215 
262 1 0.491887 0.706737 0.995068 2.07596 -3.24634 0.442172 -0.280738 1.05832 
267 1 0.598676 0.652164 0.0507396 2.14367 -3.32222 -0.202026 -0.828325 -0.200642 
268 1 0.551078 0.700787 0.0497697 1.01069 -3.29013 -0.172847 -0.627736 -0.190475 
266 1 0.611013 0.688889 1.0008 0.195976 -3.3225 0.0603475 -0.014869 0.0713935 
265 1 0.543448 0.65688 0.996532 1.29254 -3.32013 0.0801574 -0.0903373 0.604985 
272 1 0.665117 0.680909 0.0561484 1.34386 -3.22649 0.522387 0.506598 -0.580818 
270 1 0.721182 0.678284 0.00741584 2.8097 -3.28245 0.413084 -0.438105 -0.429543 
311 1 0.733341 0.721681 0.0543053 1.94812 -3.31345 -0.235927 -0.764691 0.111591 
670 1 0.726677 0.673491 0.0994108 0.77775 -3.33 0.282071 0.133157 0.111961 
709 1 0.671585 0.723466 0.101588 0.561744 -3.33208 0.736403 0.595347 0.0442971 
309 1 0.675759 0.723627 1.00523 0.449668 -3.26659 -0.495829 0.212571 -0.148861 
276 1 0.784945 0.665191 0.0486067 1.33972 -3.29451 -0.625957 0.184995 0.336712 
315 1 0.846672 0.70645 0.0498699 2.10219 -3.29961 0.174022 -0.859844 0.275627 
313 1 0.789188 0.709493 0.000860502 0.296435 -3.26877 -0.0312872 -0.382548 0.267018 
274 1 0.837503 0.65996 1.00325 0.961882 -3.28776 0.864057 0.0169912 -0.539302 
280 1 0.896826 0.650252 0.0520153 0.466052 -3.33874 0.189239 0.351556 -0.248492 
319 1 0.966041 0.684509 0.0506419 0.249707 -3.32192 0.0421351 -0.126845 0.0988848 
288 1 0.0987313 0.749801 0.0463239 0.867184 -3.34279 0.420585 0.246544 0.210968 
323 1 0.0500986 0.804562 0.0487214 0.47579 -3.28644 -0.374683 -0.247056 0.461628 
721 1 0.0426644 0.759883 0.0968653 0.435675 -3.27563 -0.073749 0.205518 -0.18071 
325 1 0.107345 0.79703 1.00315 1.23936 -3.30596 0.544742 -0.058624 -0.632982 
292 1 0.215387 0.735843 0.0494893 0.938013 -3.29737 -0.686889 0.0391531 -0.555293 
327 1 0.163854 0.787525 0.0510827 0.419215 -3.35819 0.113966 -0.364051 0.168726 
690 1 0.222833 0.779894 0.1045 1.18355 -3.28826 -0.0648123 0.0382003 -0.510321 
329 1 0.214202 0.783702 0.998269 1.70947 -3.25094 0.370711 -0.705565 -0.0732838 
286 1 0.157785 0.741193 0.99639 1.06131 -3.30001 -0.116185 0.51023 0.383772 
296 1 0.269219 0.775843 0.0461917 2.26538 -3.29408 0.607646 -0.11267 0.274269 
300 1 0.336387 0.809152 0.047561 0.760366 -3.35593 0.274382 0.219412 0.14757 
290 1 0.273893 0.729952 0.997907 0.80442 -3.31569 -0.564999 -0.0693148 -0.00136318 
333 1 0.2803 0.819045 -0.00534427 1.0449 -3.35276 0.112925 -0.0831782 0.322981 
299 1 0.387201 0.76177 0.0494877 0.397578 -3.32648 0.356467 -0.0427569 0.426339 
304 1 0.451588 0.799179 0.0496539 0.369902 -3.3851 -0.0130668 -0.141596 0.17892 
701 1 0.451454 0.752472 0.100831 1.45232 -3.31221 -0.802807 0.292701 0.112349 
301 1 0.446486 0.756966 1.00137 0.725964 -3.30085 -0.364625 -0.573978 0.0686138 
303 1 0.50208 0.74476 0.05402 1.86981 -3.18786 -0.280713 0.540995 -1.31854 
308 1 0.567861 0.780889 0.0492663 0.429249 -3.35636 0.186915 0.318204 0.184871 
702 1 0.51022 0.7943 0.100699 0.828927 -3.28934 -0.496711 -0.465341 -0.224909 
307 1 0.616588 0.731744 0.0508124 0.245944 -3.34065 0.296752 0.417659 0.0609389 
312 1 0.685265 0.768844 0.0520881 0.694305 -3.26045 -1.1372 -0.707856 0.0486813 
306 1 0.627763 0.773918 0.000363232 0.32797 -3.29577 -0.266675 -0.461367 0.411558 
347 1 0.634925 0.819508 0.0498835 0.725999 -3.266 -0.699483 -0.691369 0.545214 
706 1 0.625109 0.774827 0.10314 0.718904 -3.39371 0.0639924 0.164124 -0.30509 
310 1 0.740588 0.756555 0.00157461 0.658166 -3.2736 0.155445 0.84697 -0.00236592 
349 1 0.686511 0.811528 1.00114 1.50403 -3.28752 0.785215 -0.0788569 -0.0294907 
351 1 0.745255 0.799377 0.048289 1.0934 -3.25289 1.0948 0.703157 0.0753491 
316 1 0.800119 0.751629 0.0500651 0.320095 -3.25334 -0.301825 0.107109 0.140667 
314 1 0.85462 0.740889 -0.00170718 0.922234 -3.2748 0.470591 0.471484 0.215541 
355 1 0.865701 0.782427 0.0462884 0.797005 -3.31473 0.501679 0.258635 0.457004 
714 1 0.855191 0.743413 0.102899 1.088 -3.23147 0.600114 0.101517 -0.71192 
353 1 0.809673 0.792745 1.00226 0.7515 -3.34723 -0.491645 -0.105585 -0.420382 
320 1 0.916344 0.7341 0.0514346 0.280589 -3.28052 -0.179792 -0.196255 -0.133293 
359 1 0.981622 0.765058 0.0489815 0.900421 -3.23637 0.365686 0.934138 0.357366 
360 1 0.929422 0.819062 0.0500792 0.523606 -3.31303 -0.0985178 -0.270756 -0.089621 
321 1 0.98948 0.81071 1.00291 0.6818 -3.2727 -0.151305 -0.191577 -0.397716 
328 1 0.11618 0.837434 0.0514842 0.482711 -3.31122 0.0903518 0.101034 -0.227285 
363 1 0.071758 0.886636 0.0482195 1.33277 -3.32698 -0.587598 -0.0417479 0.444867 
761 1 0.00875081 0.895451 0.0999042 0.294874 -3.34255 0.00223591 0.0712572 -0.445399 
726 1 0.121267 0.883393 0.101242 1.24338 -3.2627 0.268883 -0.57237 -0.236318 
365 1 0.120441 0.880443 -0.0027354 0.669624 -3.32125 0.208854 -0.41579 0.0254571 
322 1 0.0515315 0.843335 -3.81909e-05 1.64936 -3.29728 0.946229 0.26242 -0.234111 
361 1 1.01021 0.8909 1.00085 1.30887 -3.23918 -0.205254 0.453256 -0.0641336 
331 1 0.226488 0.82457 0.0503235 0.296123 -3.26869 0.299971 0.136351 0.263474 
332 1 0.177635 0.873266 0.0478107 0.661723 -3.3021 0.174499 -0.0117362 0.370944 
729 1 0.172474 0.829594 0.102814 0.489627 -3.31008 0.292047 0.111872 -0.457111 
330 1 0.232673 0.867893 -0.00109919 0.373886 -3.29968 0.72808 0.305252 0.0264544 
336 1 0.240762 0.913207 0.0516067 0.702348 -3.26421 -0.45973 -0.962994 -0.358268 
335 1 0.29194 0.861546 0.0520798 0.748931 -3.26471 -0.657412 -0.603688 -0.37677 
340 1 0.348456 0.896606 0.0548319 1.78059 -3.22902 1.00105 0.475662 -0.518304 
337 1 0.344589 0.854258 0.999418 0.448249 -3.28839 -0.17399 -0.311237 -0.0134028 
339 1 0.402793 0.85005 0.0464971 1.18809 -3.339 -0.180539 -0.254305 0.46935 
344 1 0.469643 0.884883 0.0495539 0.553133 -3.37318 0.000183897 -0.0733151 0.249968 
341 1 0.457409 0.842934 0.998998 0.707703 -3.26041 0.0936359 -0.308441 0.251277 
343 1 0.51696 0.833599 0.0492071 0.343035 -3.33682 -0.0955893 -0.14151 0.0839557 
348 1 0.58282 0.870188 0.0518566 1.09554 -3.27567 -0.158493 -0.365408 -0.133608 
342 1 0.527285 0.871211 1.00141 1.32792 -3.30042 0.143712 0.687911 -0.145604 
352 1 0.697072 0.851365 0.0551089 1.28 -3.22074 0.621639 0.133807 -0.827153 
387 1 0.650864 0.900551 0.0471961 0.803108 -3.21946 -0.352051 0.519739 0.766723 
746 1 0.640139 0.85907 0.100709 0.353109 -3.28326 -0.208837 -0.172054 0.141105 
356 1 0.816914 0.835902 0.0489335 0.575433 -3.25969 -0.805983 -0.71018 0.0807352 
391 1 0.764154 0.882727 0.0517788 0.698757 -3.35357 0.175973 0.214805 -0.137811 
350 1 0.75836 0.841013 0.998744 0.804146 -3.36499 -0.438055 -0.031977 0.224166 
750 1 0.759032 0.841766 0.0997563 0.657585 -3.32848 -0.0806696 -0.164509 0.113325 
793 1 0.823993 0.877159 0.102722 0.833596 -3.3083 -0.127653 0.0582067 -0.24943 
393 1 0.818788 0.876424 1.00112 0.594215 -3.28183 0.301808 -0.066802 -0.16337 
324 1 -0.00330844 0.855676 0.0507535 1.14518 -3.32427 0.374871 -0.417651 0.202135 
395 1 0.877622 0.867751 0.0499381 0.610706 -3.28291 0.862728 0.577467 -0.0853578 
797 1 0.939655 0.861095 0.0980072 0.271768 -3.32788 -0.131565 0.0238749 0.177102 
399 1 0.950642 0.903906 0.0466351 0.882978 -3.35116 -0.336866 -0.32659 0.391126 
358 1 0.939851 0.858248 1.00239 0.821462 -3.30993 0.0666899 0.315462 -0.281693 
368 1 0.0796224 0.975937 0.0493997 0.774918 -3.32704 0.119458 -0.280009 -0.0904462 
364 1 0.0178158 0.937013 0.0501261 0.299172 -3.31031 -0.337664 0.0328333 0.0736193 
362 1 0.0712028 0.926993 1.00269 1.36845 -3.24906 0.194637 0.502221 -0.147734 
1 1 0.0217029 0.978395 1.00007 0.371206 -3.36255 0.235487 0.227064 0.214519 
367 1 0.139172 0.921325 0.0526705 3.67302 -3.24756 -0.759019 0.685592 -0.573039 
730 1 0.185239 0.916846 0.102811 0.545923 -3.19815 0.228449 -0.285981 0.177744 
371 1 0.198643 0.961649 0.0488982 1.72439 -3.24579 -0.990086 -0.128112 -0.0850635 
769 1 0.141006 0.968611 0.0998487 1.2186 -3.228 -0.672066 -0.693661 -0.712242 
370 1 0.19851 0.00264386 0.000198849 0.372262 -3.35907 0.0915089 -0.0168187 -0.193223 
366 1 0.129447 0.964633 0.998628 1.89841 -3.36569 0.590585 0.508186 0.16305 
369 1 0.184759 0.917036 -0.00166287 0.461266 -3.32462 -0.094149 0.0670902 -0.0436985 
375 1 0.296093 0.949678 0.0539774 2.53526 -3.26487 1.00335 0.186762 -0.341145 
376 1 0.256085 0.999241 0.0513833 0.93374 -3.25182 0.154149 0.18336 -0.154975 
777 1 0.357872 0.938988 0.100001 0.724055 -3.30589 0.423118 0.169779 -0.245833 
374 1 0.312247 0.988959 -0.00179834 0.440262 -3.27629 0.0467809 -0.315348 0.327352 
377 1 0.358272 0.938945 1.00034 0.379075 -3.29817 0.117996 0.254482 -0.0360567 
380 1 0.370571 0.979792 0.0471977 0.879932 -3.29843 -0.502335 0.140327 0.485689 