ITEM: TIMESTEP
17750
ITEM: NUMBER OF ATOMS
4000
ITEM: BOX BOUNDS pp pp pp
3.5326258983144876e+00 3.6967374101684939e+01
-3.7877544313811193e+00 4.4287754431380186e+01
-4.6126494609557017e-01 4.0961264946096080e+01
ITEM: ATOMS id type xs ys zs c_csym c_peratom fx fy fz 
405 1 0.038403 0.0635316 0.102409 0.568497 -3.31849 0.329994 0.165316 -0.322705 
7 1 0.0941658 0.0576546 0.046666 0.502533 -3.26944 -0.198107 -0.328512 0.294509 
3 1 0.02928 0.0247332 0.0500331 0.975294 -3.28846 -0.0680918 -0.233896 0.261684 
766 1 0.0876968 0.0145503 0.0984415 0.282728 -3.33549 0.244696 0.0932448 -0.0228465 
2 1 0.0354539 0.0674433 1.00119 1.19122 -3.30431 0.0105194 -0.179791 -0.524866 
5 1 0.0792563 0.0129881 0.999107 1.49456 -3.34695 0.337296 0.262175 -0.0535219 
11 1 0.207745 0.0448303 0.0502098 0.588904 -3.31658 -0.120945 0.049473 -0.688316 
409 1 0.150329 0.0522875 0.0967239 0.743778 -3.3272 -0.0205031 -0.227124 0.605789 
410 1 0.215233 0.0895074 0.100036 0.545629 -3.38316 -0.07599 -0.269942 0.0612753 
372 1 0.142688 0.00344929 0.0476432 1.43654 -3.31961 0.293331 0.705849 -0.0372622 
770 1 0.199516 1.00442 0.0991915 1.54284 -3.22634 -0.384494 -0.463862 -0.152083 
10 1 0.203974 0.0886728 -0.00371398 2.98462 -3.27728 1.16959 0.0595391 0.354028 
16 1 0.272824 0.080014 0.0482855 0.712143 -3.35669 -0.416122 0.0844611 -0.311163 
15 1 0.319897 0.0290471 0.0475774 0.60357 -3.27398 0.290109 0.159481 0.417717 
413 1 0.261974 0.036605 0.0978988 0.671276 -3.25753 0.6243 0.43961 0.346714 
414 1 0.325056 0.0729348 0.0990605 0.609875 -3.31272 0.225097 -0.119523 -0.0638542 
13 1 0.270672 0.0354292 0.997697 1.96584 -3.31798 -0.497178 0.256583 0.138381 
14 1 0.329217 0.0778585 -0.00371308 2.51766 -3.3615 0.0569477 -0.583295 0.22582 
20 1 0.386948 0.0633896 0.0490613 0.328671 -3.3136 -0.291748 -0.133826 -0.311496 
19 1 0.442707 0.0119491 0.0499685 0.968368 -3.33254 -0.422044 0.176887 -0.209965 
418 1 0.445794 0.0539562 0.0976928 0.71475 -3.27503 0.0791996 0.0759062 0.427705 
421 1 0.50052 0.00499734 0.0990661 1.16695 -3.33958 -0.560687 0.0352646 0.126646 
417 1 0.377241 0.0247646 0.099435 0.901598 -3.30228 0.303049 -0.129269 -0.0275427 
21 1 0.499294 0.00359151 0.996657 1.49333 -3.31965 -0.611951 0.279415 0.701631 
17 1 0.373028 0.0206648 -0.000254609 1.5589 -3.29336 0.98093 0.866497 -0.235319 
18 1 0.445954 0.0550493 0.997612 0.563759 -3.3453 -0.275132 -0.0725332 0.331593 
24 1 0.503813 0.0480522 0.0522946 0.486362 -3.24584 -0.0799657 -0.0680752 -0.552951 
28 1 0.617543 0.0341973 0.0480294 0.367647 -3.2439 -0.0446481 -0.151813 0.315769 
422 1 0.558181 0.0438029 0.0994965 0.676792 -3.2435 0.329614 -0.550864 0.105444 
465 1 0.621819 0.0764963 0.0988259 0.396833 -3.29102 0.0311831 -0.103333 0.318566 
63 1 0.568423 0.0823743 0.0500114 0.93648 -3.30417 -0.371992 0.661404 -0.175761 
22 1 0.557702 0.0437193 1.003 1.30647 -3.27923 -0.0252947 -0.394945 -0.192871 
32 1 0.734439 0.0204973 0.0508313 0.769832 -3.22137 -0.158919 -0.634412 -0.175113 
67 1 0.68001 0.0670079 0.0502303 0.432831 -3.25287 0.381159 0.499793 -0.165503 
469 1 0.741679 0.0586351 0.100045 0.553244 -3.22136 -0.056026 0.328157 -0.303156 
426 1 0.676767 0.0286683 0.0976783 0.714505 -3.31247 -0.573489 -0.645827 0.515973 
26 1 0.679533 0.0271349 1.00357 1.4238 -3.29577 -0.238285 -0.183311 -0.633303 
65 1 0.625073 0.0756409 1.00043 0.290088 -3.29247 0.283153 0.344389 0.16617 
36 1 0.801289 0.0459439 0.050897 2.07767 -3.26859 0.519011 0.907186 -0.547193 
434 1 0.855058 0.0438719 0.0999323 0.631304 -3.2864 0.589741 -0.0865625 -0.103081 
430 1 0.792236 0.00949459 0.0999338 0.39291 -3.29421 -0.10818 -0.541857 0.0661629 
33 1 0.794854 0.00779499 0.00101294 0.431295 -3.32892 -0.347522 -0.0556785 -0.140229 
75 1 0.864979 0.0868573 0.0451453 0.857878 -3.33941 -0.225268 -0.310502 0.333672 
34 1 0.858624 0.041192 -0.00206705 0.721919 -3.30767 0.1226 0.497116 0.284392 
4 1 0.977971 0.0727146 0.0464415 1.18448 -3.28241 0.434351 0.442789 0.716113 
40 1 0.917812 0.0378732 0.0484652 0.255936 -3.27588 -0.0164523 0.0288389 0.212317 
401 1 0.971277 0.0336623 0.10238 1.49683 -3.29492 0.146106 -0.54751 -0.398683 
438 1 0.918121 0.0803158 0.0983996 0.812829 -3.32592 0.231057 -0.00562749 -0.00780731 
77 1 0.92524 0.0804266 -0.00107339 0.395898 -3.3207 -0.0979305 -0.230562 -0.140252 
8 1 0.0492187 0.107862 0.0486273 0.882135 -3.31277 -0.367627 -0.397043 0.234434 
47 1 0.106773 0.144666 0.049353 0.232407 -3.28574 -0.0346532 -0.0390921 0.12963 
406 1 0.103055 0.100103 0.102341 0.635623 -3.334 -0.310176 0.0173711 -0.314986 
445 1 0.0485443 0.152899 0.101182 0.907513 -3.33528 0.188757 0.0147142 -0.122455 
45 1 0.0543859 0.149695 1.00013 1.07067 -3.2357 -0.296146 -0.017705 -0.325241 
6 1 0.102837 0.0989445 0.994434 1.13347 -3.3107 -0.0836945 0.267698 0.445525 
12 1 0.154968 0.0917224 0.0491309 0.873997 -3.27685 0.290576 0.710359 -0.0188412 
52 1 0.168107 0.177768 0.0473014 0.628509 -3.31753 0.386125 0.591712 -0.0337563 
51 1 0.21878 0.131977 0.0436489 0.971263 -3.29346 -0.155691 -0.529578 0.471726 
449 1 0.165426 0.137716 0.0956453 0.866567 -3.2767 -0.28493 -0.270594 0.259842 
450 1 0.229013 0.169746 0.0968792 0.569467 -3.29991 -0.0299501 0.315903 0.0282683 
49 1 0.162505 0.138385 0.994377 0.8104 -3.32307 -0.23612 0.063912 0.152783 
55 1 0.337701 0.113985 0.0512103 1.03307 -3.3105 -0.0846024 0.0944019 -0.559966 
56 1 0.284884 0.164852 0.0466694 0.266318 -3.26456 -0.161493 0.114271 0.145866 
453 1 0.279463 0.123933 0.0970473 0.565603 -3.27967 -0.636267 -0.450263 0.138795 
454 1 0.336966 0.160047 0.0983117 1.34008 -3.21118 0.866403 -0.332131 0.179722 
54 1 0.343588 0.15811 0.00416045 1.55673 -3.27155 -0.210162 -0.144432 -1.17647 
53 1 0.274996 0.124951 -0.000703637 0.835262 -3.3104 0.378506 -0.561778 -0.144595 
59 1 0.453686 0.0933474 0.0509766 3.00845 -3.26412 0.302018 0.941487 -0.281967 
60 1 0.399183 0.1518 0.0469221 1.19962 -3.28385 0.702776 -0.316346 0.720968 
458 1 0.455726 0.143831 0.102584 1.75968 -3.31213 0.519087 -0.0629053 -0.67524 
457 1 0.395291 0.107702 0.0952891 1.05824 -3.2969 -0.0831875 -0.105258 0.313935 
99 1 0.467673 0.186012 0.0454824 0.846721 -3.27878 -0.322955 -0.137427 0.343178 
61 1 0.507046 0.0944691 0.998705 1.22554 -3.37843 0.0283075 -0.211082 0.162342 
461 1 0.508835 0.0925301 0.101826 0.879122 -3.29515 -0.177968 0.0515953 -0.548448 
64 1 0.510964 0.140586 0.0462916 3.3796 -3.29876 0.142043 -1.05535 0.313679 
103 1 0.582575 0.168458 0.0442925 1.0041 -3.2736 0.103006 0.194837 0.911802 
462 1 0.570275 0.128523 0.0938438 2.19114 -3.36041 0.376957 -0.0316906 0.357178 
501 1 0.52517 0.177462 0.0985517 0.321936 -3.31963 0.264555 -0.330155 0.12119 
62 1 0.575463 0.127427 0.999702 0.340774 -3.32235 -0.392722 -0.602953 0.0157954 
101 1 0.52719 0.180596 -0.000173257 1.51081 -3.25398 -0.839934 -0.468774 -0.223543 
68 1 0.634396 0.117961 0.049117 0.41078 -3.29142 -0.533496 -0.00397674 -0.156413 
72 1 0.698393 0.152251 0.0519578 0.540906 -3.3015 0.0881708 0.0662799 -0.411085 
71 1 0.742795 0.100794 0.05355 1.76812 -3.35285 0.66752 0.220671 -0.414783 
505 1 0.641911 0.160701 0.0990853 0.23834 -3.31819 -0.344675 -0.199847 0.0738278 
466 1 0.682827 0.109717 0.0987512 1.48587 -3.23353 0.849665 0.14933 0.354789 
69 1 0.690432 0.110586 0.999403 0.302937 -3.36496 0.271724 -0.384043 -0.0537389 
66 1 0.641518 0.158457 1.00077 0.43508 -3.2818 0.13485 0.155689 -0.365455 
473 1 0.808448 0.091864 0.0953744 1.44989 -3.33994 -0.177015 0.282924 0.204936 
76 1 0.810479 0.138615 0.0456029 1.12423 -3.23689 0.111248 -0.800915 0.879253 
470 1 0.753278 0.144919 0.0989371 0.919967 -3.29601 0.0953019 -0.285327 0.270728 
477 1 0.868856 0.128708 0.0983794 0.387839 -3.32719 0.0763146 0.0473942 0.19047 
80 1 0.878364 0.168458 0.046405 0.940765 -3.2983 0.163878 0.384042 0.550969 
474 1 0.818553 0.175081 0.0976713 1.06036 -3.3252 0.451174 0.537284 0.351883 
74 1 0.875543 0.127448 0.99938 1.06637 -3.26978 -0.627552 -0.044699 -0.246272 
70 1 0.755059 0.145748 0.00210256 0.57265 -3.25061 -0.858009 -0.48607 -0.535507 
113 1 0.81772 0.176058 -0.000288859 0.765556 -3.22613 0.782535 0.639081 -0.69261 
43 1 0.99888 0.155678 0.0474809 1.77252 -3.30742 -0.561164 0.357046 0.532783 
79 1 0.928677 0.123024 0.0527809 1.33578 -3.33981 0.464505 -0.000145701 -0.183764 
402 1 0.992461 0.11279 0.0995261 1.42606 -3.36145 -0.524214 0.0194191 -0.00328045 
441 1 0.936647 0.164922 0.102263 0.816079 -3.35621 0.0599853 -0.164179 -0.557769 
78 1 0.933105 0.163813 -0.00178005 0.501198 -3.29568 0.618831 0.20657 -0.0831097 
446 1 0.11611 0.18966 0.101033 0.913182 -3.33154 -0.358254 -0.377591 -0.483589 
48 1 0.0562994 0.197505 0.0517596 1.236 -3.25638 0.00125017 -0.783362 -0.272716 
83 1 0.00627309 0.243358 0.0476874 0.607259 -3.25612 -0.431345 0.13087 -0.191431 
485 1 0.0610889 0.239363 0.0991376 0.693128 -3.26184 0.410837 0.0223084 -0.0182746 
87 1 0.118705 0.22936 0.0473571 0.458146 -3.27481 0.370148 0.143927 0.114007 
486 1 0.129052 0.272498 0.0937558 0.887477 -3.33479 -0.088359 -0.141665 0.419608 
91 1 0.234563 0.213959 0.0441107 0.853049 -3.3106 -0.24785 -0.340744 0.634367 
92 1 0.189742 0.265221 0.0460822 1.34518 -3.29309 -0.583375 -0.279909 -0.0103968 
489 1 0.180931 0.223625 0.0964701 0.723952 -3.31215 -0.498456 -0.40519 -0.0651726 
89 1 0.174024 0.221068 0.0013279 1.5533 -3.29811 0.0391222 0.182118 -0.770336 
490 1 0.237043 0.260073 0.0997296 1.02315 -3.22956 0.313654 -0.247529 -0.03729 
90 1 0.239661 0.253806 -0.00573899 1.69851 -3.2746 -0.127724 0.259503 0.0195979 
95 1 0.350546 0.198746 0.0518778 0.76433 -3.30881 0.0414168 0.593372 -0.309407 
96 1 0.294461 0.248457 0.0495918 0.503661 -3.37115 0.400357 0.375881 -0.0403149 
493 1 0.29062 0.204355 0.0989547 0.668911 -3.26271 -0.25468 0.715774 -0.133606 
494 1 0.35103 0.242773 0.0998521 1.31942 -3.31939 0.481449 -0.111841 -0.273122 
100 1 0.419947 0.232759 0.046568 1.25642 -3.26223 -0.739708 -0.0475255 0.591565 
139 1 0.482459 0.267303 0.0507342 0.377095 -3.29894 0.168608 0.31567 0.00815592 
497 1 0.408243 0.19439 0.100373 0.870888 -3.35994 -0.315024 -0.220658 -0.0480959 
498 1 0.477343 0.221234 0.0982045 1.65679 -3.29776 -0.058652 0.767959 0.389142 
537 1 0.423467 0.270595 0.0976682 1.33655 -3.32833 -0.0460252 0.44174 -0.0033923 
104 1 0.532963 0.222112 0.0495296 0.863477 -3.3273 0.164919 -0.53148 -0.0120799 
108 1 0.597994 0.254157 0.0510644 0.504338 -3.37513 0.492972 -0.113465 -0.0422251 
502 1 0.594638 0.209855 0.0986049 0.453444 -3.31984 -0.51376 -0.276646 -0.401662 
541 1 0.5426 0.262116 0.1009 0.73542 -3.27496 -0.317379 -0.468475 -0.138854 
102 1 0.541428 0.26099 0.999674 0.346358 -3.3064 -0.228033 -0.252894 0.00608722 
107 1 0.650988 0.200749 0.0488883 0.500012 -3.35182 -0.235437 0.359517 0.316393 
509 1 0.707424 0.19353 0.101073 0.320069 -3.32084 0.254775 -0.0155743 -0.105943 
112 1 0.716909 0.237879 0.0461686 1.13512 -3.26697 -0.356333 -0.675014 0.698272 
506 1 0.659583 0.242277 0.0999156 0.349082 -3.26755 -0.0325414 0.0833681 -0.435324 
109 1 0.700154 0.196532 0.999484 1.44891 -3.27143 0.548137 -0.327107 -0.0403292 
106 1 0.655372 0.244861 -0.000674027 0.500876 -3.30774 0.0775527 0.171559 0.268984 
115 1 0.832038 0.216637 0.0482551 1.19823 -3.33711 0.0400914 0.399412 0.143313 
111 1 0.762003 0.189681 0.0461868 1.59599 -3.30328 -0.298683 -0.343669 0.605095 
517 1 0.833317 0.263089 0.0963145 1.09572 -3.28665 0.480541 -0.186704 0.840796 
513 1 0.773428 0.224785 0.102564 1.40225 -3.35192 0.122288 0.234057 -0.298903 
116 1 0.781295 0.270987 0.0505217 0.264751 -3.24564 -0.0320328 -0.112286 -0.268301 
114 1 0.838078 0.261698 -0.00129283 0.35152 -3.39779 0.01106 0.178156 -0.0873963 
442 1 1.00001 0.204163 0.0969319 0.896322 -3.29808 -0.486383 -0.795459 0.411514 
44 1 0.93749 0.208675 0.0468249 1.36264 -3.34555 0.275779 -0.448979 0.116563 
119 1 0.891462 0.255898 0.0517024 0.891216 -3.26445 -0.116526 0.115565 -0.500313 
478 1 0.886027 0.212348 0.102215 0.691846 -3.2837 -0.664183 -0.223788 -0.517387 
481 1 0.947813 0.247915 0.0955779 0.852422 -3.20807 0.0111668 0.216699 0.394357 
42 1 0.999205 0.197738 1.0001 0.999931 -3.33817 -0.0669564 0.0477508 -0.176656 
81 1 0.947018 0.252375 -0.000866085 0.745474 -3.31032 0.493229 -0.489788 -0.0848734 
88 1 0.0709153 0.276765 0.0465504 1.32617 -3.28279 -0.43606 0.647167 0.345556 
123 1 0.028154 0.328163 0.0514058 3.02976 -3.33589 -0.637762 -0.00818695 -0.000459923 
482 1 0.00623116 0.284894 0.0986669 1.93484 -3.27903 0.805487 0.650039 -0.391258 
525 1 0.0815183 0.323789 0.103513 1.90166 -3.32731 -0.302362 0.0999275 -0.636149 
82 1 0.0110478 0.291878 -0.00525774 1.85992 -3.26134 -0.153209 -0.724122 0.154255 
127 1 0.136342 0.316893 0.0484685 0.657405 -3.33061 -0.677023 -0.0973446 -0.271405 
132 1 0.200977 0.351482 0.0494496 0.470644 -3.34073 0.136068 0.0868658 -0.0183033 
526 1 0.144319 0.362471 0.0980372 1.23717 -3.32892 -0.384962 -0.414483 0.0161515 
529 1 0.189524 0.308179 0.0952121 1.00512 -3.24715 0.36114 0.230141 0.425031 
131 1 0.249244 0.301635 0.0503865 0.78917 -3.2493 0.0457056 -0.172645 -0.364935 
136 1 0.316413 0.336159 0.0498173 0.722568 -3.26265 -0.273869 -0.479805 -0.199033 
533 1 0.300325 0.292172 0.099528 0.984962 -3.2838 0.947015 0.0596196 0.0824053 
135 1 0.363181 0.283178 0.0489905 0.246012 -3.37901 -0.21298 -0.0972355 -0.0124073 
530 1 0.25878 0.341513 0.0950845 0.772395 -3.29586 -0.0482629 0.349727 0.637333 
134 1 0.371865 0.326516 -0.00182301 1.0261 -3.29977 -0.145616 -0.545439 0.425635 
534 1 0.369487 0.325816 0.0959845 1.05602 -3.29397 0.515064 -0.394573 0.698652 
140 1 0.428299 0.317596 0.0489121 0.562523 -3.30174 0.296294 -0.227895 0.411218 
538 1 0.487187 0.309907 0.0975253 0.594283 -3.39387 -0.129056 -0.0108237 0.272646 
577 1 0.440515 0.362764 0.0989956 0.713849 -3.26238 -0.116787 -0.728903 0.136297 
144 1 0.494815 0.355071 0.0483874 1.00288 -3.27387 0.565953 -0.505311 0.229069 
138 1 0.439046 0.360242 1.00302 0.544307 -3.21953 0.15227 -0.0492306 -0.640669 
143 1 0.548386 0.301557 0.0490432 0.446208 -3.27884 -0.263121 -0.262598 -0.0848183 
545 1 0.60609 0.29557 0.102167 1.23163 -3.29125 0.286464 -0.209939 -0.403744 
148 1 0.613221 0.333783 0.0504186 0.380891 -3.27715 0.255358 0.220178 -0.231531 
542 1 0.552156 0.34156 0.0933277 2.55894 -3.27124 0.347876 0.624328 0.791831 
142 1 0.558181 0.342712 0.00197087 0.62558 -3.29902 -0.142438 0.469891 -0.00934795 
147 1 0.670222 0.284347 0.0496789 1.18326 -3.28402 -0.967154 -0.203146 0.173037 
151 1 0.72987 0.320732 0.052722 0.533808 -3.24458 0.755671 -0.0222306 -0.0776859 
549 1 0.670639 0.328727 0.0956118 1.17785 -3.27931 0.0692898 -0.250738 0.964653 
510 1 0.721826 0.274612 0.0994074 0.73735 -3.2963 0.498165 0.382276 0.157159 
149 1 0.728485 0.276851 0.00255274 1.25427 -3.2638 -0.286751 0.511092 -0.655925 
146 1 0.675821 0.324255 1.0045 1.32154 -3.31071 -0.290824 0.308922 -0.842456 
120 1 0.845149 0.305486 0.0497718 0.428478 -3.31047 -0.138464 0.364947 -0.135511 
155 1 0.794481 0.359767 0.0508677 0.503429 -3.33083 0.184144 -0.181899 0.536652 
514 1 0.78647 0.312148 0.0986434 0.316338 -3.35073 0.0717363 0.50336 0.0702951 
557 1 0.851597 0.351129 0.0993497 0.263055 -3.36035 -0.133251 -0.277308 0.0215134 
153 1 0.788621 0.315291 -0.00178877 0.583087 -3.28968 -0.334976 -0.569652 0.335345 
84 1 0.958302 0.293049 0.044709 1.05416 -3.29579 0.00933969 0.354228 0.595412 
159 1 0.904348 0.34465 0.0487744 0.67569 -3.33173 0.295627 -0.284439 -0.0535366 
518 1 0.903253 0.299433 0.0987652 0.46744 -3.36581 -0.2172 -0.172202 -0.00221632 
521 1 0.963594 0.335865 0.0969954 0.332005 -3.35765 0.268869 0.252868 -0.0432308 
118 1 0.900872 0.29971 0.000837659 0.566068 -3.28377 -0.168278 0.441913 -0.0764543 
128 1 0.0850661 0.366192 0.0449811 1.08733 -3.32587 0.303822 -0.0422115 0.595331 
522 1 0.0277744 0.374535 0.0991725 0.382259 -3.33799 -0.0651414 -0.540732 -0.335569 
163 1 0.0341834 0.417036 0.0479963 0.731896 -3.31077 0.601441 -0.263993 0.414518 
168 1 0.106977 0.447797 0.0510058 0.874829 -3.35727 -0.546499 -0.00970798 -0.166234 
565 1 0.0941618 0.40756 0.0997147 0.431563 -3.34694 -0.0375561 0.116976 -0.241912 
167 1 0.151348 0.400229 0.045776 0.825053 -3.28253 -0.00741213 -0.264833 0.557078 
172 1 0.215983 0.432591 0.048091 0.661374 -3.30303 0.283241 0.0239258 0.458549 
569 1 0.212665 0.392919 0.0997163 0.587782 -3.3288 -0.197029 -0.0493265 -0.369546 
566 1 0.164563 0.441147 0.100618 0.718108 -3.27985 -0.624338 -0.264141 -0.103802 
171 1 0.269147 0.386719 0.0459491 1.20374 -3.27785 -0.770377 -0.740508 0.635594 
176 1 0.332616 0.41723 0.0504496 0.230307 -3.32754 0.571127 0.066932 -0.103157 
573 1 0.321652 0.377422 0.0998709 0.708744 -3.36717 0.327097 0.013808 0.0337207 
570 1 0.275441 0.427242 0.0996738 0.241832 -3.2829 -0.026238 -0.437572 -0.0456372 
173 1 0.325218 0.373823 1.00301 0.695494 -3.26047 -0.100938 0.221682 -0.493646 
175 1 0.385856 0.365083 0.051936 1.38541 -3.26154 -0.479788 0.74915 -0.179404 
179 1 0.451749 0.40071 0.04714 0.554526 -3.26288 -0.27148 0.544506 0.0727982 
578 1 0.459691 0.440753 0.0919255 3.1453 -3.3045 0.0725358 0.727329 0.788897 
574 1 0.393055 0.410728 0.0981797 0.439736 -3.34304 -0.624915 -0.348017 -0.225932 
180 1 0.399539 0.451435 0.0474317 0.411389 -3.32083 0.255917 -0.187333 0.330611 
178 1 0.455324 0.441828 0.999284 0.744277 -3.30398 0.0578401 0.0657859 0.109723 
177 1 0.389583 0.405333 0.999655 0.830175 -3.34677 0.165261 0.783552 0.127507 
183 1 0.567002 0.387227 0.047928 0.561829 -3.38231 -0.332654 -0.0158245 0.123636 
184 1 0.516895 0.440151 0.0478241 1.13463 -3.23029 -0.803366 -0.960288 0.0183758 
581 1 0.507545 0.39226 0.100354 1.41347 -3.28135 0.475071 0.330673 -0.452802 
585 1 0.568875 0.431966 0.0998042 0.896561 -3.27583 0.0241274 -0.916063 0.153397 
546 1 0.621282 0.37849 0.101526 0.458972 -3.32844 -0.267565 0.0623857 -0.301723 
181 1 0.507733 0.393712 0.997571 0.711974 -3.36544 0.453136 0.320656 0.30311 
182 1 0.575743 0.433113 1.00164 1.27053 -3.25582 -0.496391 -1.33653 -0.672676 
187 1 0.630689 0.421179 0.0546129 1.13869 -3.30979 0.0754796 -0.172504 -0.471193 
553 1 0.7338 0.365031 0.102148 0.781138 -3.26138 0.471245 -0.48099 -0.899165 
152 1 0.681 0.36678 0.049959 1.38122 -3.24286 -0.231954 0.984321 0.0701047 
550 1 0.684034 0.414214 0.103635 0.711614 -3.2963 0.037762 0.477986 -0.239938 
156 1 0.74116 0.410361 0.0528687 1.01442 -3.36382 -0.143435 -0.354167 0.134486 
593 1 0.746655 0.454366 0.100686 1.25346 -3.32886 0.439541 -0.12348 -0.138204 
150 1 0.738807 0.362942 0.00564253 1.37317 -3.28302 -0.136054 0.238625 -1.01899 
189 1 0.684802 0.412013 0.998465 0.960372 -3.31927 0.103511 0.109031 0.511548 
160 1 0.865128 0.395433 0.054521 2.7136 -3.25077 -1.08523 -0.347652 -0.479724 
195 1 0.808035 0.442194 0.0481508 1.16963 -3.30025 -0.0492809 0.363787 0.633886 
197 1 0.863319 0.435825 -0.0037158 1.25064 -3.29199 0.00930021 0.243784 0.195825 
554 1 0.805602 0.401254 0.102791 1.20143 -3.26922 -0.294617 -0.366107 -0.930322 
597 1 0.865706 0.439826 0.102468 0.920052 -3.28135 -0.158229 -0.233431 -0.506099 
154 1 0.8004 0.402066 1.00449 1.18147 -3.27042 -0.104494 -0.51035 -0.509555 
124 1 0.96803 0.380937 0.0475969 0.692714 -3.30425 0.523112 -0.176514 0.387508 
199 1 0.916821 0.434145 0.0477053 1.78026 -3.25517 0.474141 0.251487 0.283327 
561 1 0.978912 0.423314 0.0970474 0.42471 -3.29079 -0.0452068 0.309867 0.0867423 
558 1 0.918882 0.388446 0.100357 0.78568 -3.24874 -0.262988 -0.296597 0.127786 
203 1 0.0520546 0.500659 0.0490264 0.614832 -3.33382 -0.215367 -0.235878 -0.10936 
605 1 0.11034 0.492351 0.0959059 0.637095 -3.35329 0.129027 -0.139365 0.44003 
602 1 0.0642979 0.542178 0.09684 0.734829 -3.28395 -0.443525 0.153781 0.405316 
208 1 0.117492 0.535965 0.0495763 0.695734 -3.26582 0.0825178 -0.12387 -0.025776 
562 1 0.0438188 0.459623 0.0988665 0.35683 -3.33634 0.115144 -0.270245 -0.0108404 
205 1 0.112028 0.492725 0.00436754 1.10651 -3.28746 -0.385549 -0.606133 -0.290345 
207 1 0.171049 0.480671 0.0521767 0.741182 -3.26641 -0.0563503 0.331683 0.0547431 
212 1 0.23263 0.51914 0.0482474 1.35914 -3.29286 0.392022 -0.131399 0.45851 
609 1 0.229199 0.472251 0.101927 1.07912 -3.24187 -0.326184 0.493757 -0.309854 
606 1 0.179982 0.523867 0.0984578 1.04565 -3.35822 -0.286003 -0.112033 0.388152 
206 1 0.174603 0.522634 0.00515213 1.34248 -3.24616 0.43078 0.642859 -0.763214 
211 1 0.284162 0.468358 0.0492345 0.387364 -3.21664 -0.45202 -0.377376 0.187583 
215 1 0.348479 0.498293 0.0481871 0.625481 -3.23424 0.721975 0.607886 0.26072 
613 1 0.339756 0.459177 0.0953568 0.771837 -3.30501 0.373309 0.0550441 0.661647 
610 1 0.286592 0.508857 0.0975375 1.27889 -3.34701 0.360387 0.309411 0.392369 
174 1 0.344188 0.458783 0.00181454 0.582922 -3.30352 -0.416688 -0.407337 -0.653724 
614 1 0.357448 0.542392 0.0984671 0.551054 -3.28428 -0.353981 -0.301872 0.494636 
219 1 0.462524 0.490938 0.0518579 2.04797 -3.30659 0.0505872 -0.742471 0.0361322 
621 1 0.470054 0.527936 0.101714 0.469666 -3.308 0.219499 0.151125 -0.0916599 
220 1 0.409665 0.534978 0.0492474 0.904551 -3.33502 0.216822 0.3283 -0.235346 
617 1 0.406561 0.493727 0.101039 0.745026 -3.33948 -0.315823 -0.506142 -0.365919 
188 1 0.578386 0.469827 0.0468411 1.76815 -3.13603 0.705495 1.0834 0.698888 
582 1 0.525802 0.478457 0.101641 1.40744 -3.32926 -0.509578 0.239727 -0.372937 
223 1 0.531134 0.520767 0.048906 0.9989 -3.23761 -0.632522 0.115289 0.270427 
586 1 0.584069 0.517715 0.0953938 1.95716 -3.27466 0.4087 -0.398967 0.764868 
221 1 0.51619 0.479588 1.00091 1.14367 -3.30231 0.327602 0.297014 -0.276105 
191 1 0.690492 0.458354 0.0530905 0.459057 -3.3123 0.146869 0.125749 -0.196649 
192 1 0.644931 0.510587 0.0500716 0.592723 -3.36295 0.034613 -0.249126 0.215072 
231 1 0.709237 0.546753 0.0575281 1.55453 -3.29853 -0.485982 0.00328119 -0.519842 
589 1 0.629567 0.46732 0.0999082 1.60872 -3.3535 0.758239 0.228703 0.262473 
590 1 0.703077 0.505067 0.102464 0.656215 -3.33644 -0.579056 -0.488485 0.113484 
190 1 0.704809 0.499388 1.00194 1.1944 -3.24807 -0.687874 -0.0233447 0.0387062 
196 1 0.754447 0.496293 0.0510565 0.648533 -3.30286 0.464554 -0.452912 0.21807 
194 1 0.812756 0.487726 -0.000694386 0.446085 -3.3179 -0.797036 -0.364112 0.105511 
235 1 0.821178 0.530076 0.0490736 0.305912 -3.29839 0.0939279 -0.0998937 0.14477 
200 1 0.865602 0.479926 0.0481989 0.936755 -3.30904 0.420976 0.112129 0.177438 
594 1 0.814973 0.490921 0.102155 0.901844 -3.32574 -0.277992 -0.586815 -0.2903 
633 1 0.770765 0.538688 0.0998942 0.94952 -3.22571 -0.482273 0.0223124 -0.00221702 
637 1 0.881311 0.522734 0.0976426 0.361814 -3.29822 -0.185393 0.381903 0.25346 
164 1 0.984972 0.467208 0.0526914 0.986716 -3.36054 0.0695167 0.0718379 -0.648609 
239 1 0.933222 0.513782 0.0494154 0.715469 -3.35496 0.536943 0.243203 -0.457919 
601 1 0.994202 0.508174 0.101635 0.431758 -3.27013 0.226307 0.131119 -0.378849 
598 1 0.926759 0.475334 0.0993228 0.431969 -3.26371 0.228785 -0.246199 -0.0170254 
237 1 0.876975 0.521755 -0.00121768 0.383603 -3.25447 0.231485 0.479715 0.309921 
243 1 0.0722555 0.585396 0.0460359 0.75416 -3.32738 -0.339494 -0.217534 0.471404 
642 1 0.081367 0.624864 0.0976684 1.32634 -3.33805 -0.705502 0.126673 0.204941 
245 1 0.127825 0.578451 0.998104 0.610869 -3.32456 -0.00213073 -0.505894 -0.0297162 
641 1 0.00830248 0.592011 0.100089 0.802365 -3.3573 0.333117 0.34664 -0.226276 
244 1 0.0204369 0.632421 0.0472761 0.764135 -3.33154 0.0662134 0.178249 0.560689 
241 1 0.0137607 0.592637 1.00012 0.342038 -3.31813 -0.332486 -0.409872 -0.090382 
645 1 0.128644 0.575804 0.101534 0.6668 -3.26344 -0.468624 -0.322557 -0.00235692 
204 1 0.00596525 0.548778 0.0519032 0.833362 -3.34161 -0.224609 0.154335 -0.51719 
242 1 0.0778189 0.627238 0.996492 0.557552 -3.26851 0.00477559 -0.181463 0.22257 
248 1 0.136334 0.618684 0.0516879 0.59783 -3.24198 -0.443599 0.08224 -0.74419 
247 1 0.18201 0.568101 0.0522504 0.411498 -3.26573 0.0151656 -0.0756087 -0.352851 
649 1 0.239449 0.560229 0.104208 1.25674 -3.28834 0.000990484 -0.557893 -0.336229 
251 1 0.247206 0.598922 0.0499191 0.819321 -3.3399 0.670724 0.282451 -0.0561442 
646 1 0.188277 0.609518 0.0982061 0.818451 -3.20781 0.447774 0.161357 0.741717 
249 1 0.190473 0.611115 -0.00373239 1.37629 -3.31786 0.51952 0.145835 0.225604 
216 1 0.304862 0.54749 0.0490695 2.13641 -3.26833 -0.755068 0.279471 -0.000928 
255 1 0.361578 0.584317 0.056139 2.12211 -3.27976 0.29062 0.681803 -0.475473 
653 1 0.301375 0.592812 0.10216 1.26618 -3.29646 0.778079 -0.0554674 -0.28241 
256 1 0.31361 0.636192 0.0533741 0.852574 -3.30047 -0.560034 -0.819653 -0.225569 
657 1 0.370591 0.627886 0.101998 0.427135 -3.30929 0.081125 -0.38975 -0.325358 
259 1 0.428659 0.621706 0.051004 0.54009 -3.33248 -0.236218 -0.297532 -0.116113 
224 1 0.481232 0.569784 0.0501248 0.859458 -3.35565 -0.371745 0.213815 -0.0699859 
618 1 0.423181 0.576757 0.0989779 0.534659 -3.30236 -0.0732955 -0.0701126 0.038434 
622 1 0.482631 0.614548 0.0989107 0.790597 -3.2795 0.744983 -0.0648914 0.101691 
227 1 0.591889 0.558337 0.0519186 0.471169 -3.28009 0.388427 0.451386 0.0432028 
228 1 0.546685 0.60901 0.0538359 0.814448 -3.36879 -0.309659 -0.111754 -0.163555 
625 1 0.532735 0.564746 0.100415 0.714397 -3.32039 0.190257 0.123567 0.0693298 
626 1 0.599981 0.599972 0.105523 1.19745 -3.26562 0.660515 0.276392 -0.857886 
629 1 0.649054 0.553805 0.104905 0.814715 -3.29169 0.419808 -0.329108 -0.496124 
232 1 0.658333 0.596477 0.0542534 0.600635 -3.33697 -0.0839978 -0.458316 -0.408675 
271 1 0.723678 0.630597 0.0468631 1.08175 -3.34502 0.0398793 -0.223062 -0.0343846 
630 1 0.713702 0.592153 0.102549 1.47332 -3.30361 0.23837 -0.397624 0.0702072 
669 1 0.667177 0.638025 0.0993311 0.698562 -3.28033 -0.125761 -0.211994 0.653331 
236 1 0.769846 0.581648 0.0525004 1.24717 -3.31868 0.371778 0.230933 -0.037664 
275 1 0.839695 0.617572 0.0534425 1.43793 -3.33662 -0.347485 -0.348407 -0.577829 
634 1 0.833473 0.57359 0.0968902 0.718478 -3.31696 -0.00134355 0.0361951 0.078733 
673 1 0.781793 0.623015 0.103103 0.702501 -3.30763 -0.0429992 -0.279171 -0.23084 
273 1 0.784066 0.621462 -0.0017664 1.29585 -3.3118 -0.153982 0.44936 0.584294 
240 1 0.885343 0.565187 0.0435011 2.07858 -3.28148 0.633616 -0.264159 0.785528 
279 1 0.951213 0.601824 0.0514978 1.33758 -3.27653 0.557618 -0.665177 -0.30547 
638 1 0.947082 0.555973 0.0969961 0.862101 -3.33387 -0.37885 0.207983 0.302543 
677 1 0.900056 0.606325 0.100016 0.713108 -3.26236 -0.303223 -0.137439 0.334149 
238 1 0.950657 0.555202 -0.000354092 1.40342 -3.35337 -0.528353 0.28128 0.320497 
277 1 0.897212 0.604688 1.00032 0.877732 -3.33202 -0.250374 0.559607 -0.235704 
283 1 0.0821375 0.669996 0.0519083 1.45084 -3.33837 -0.0151521 -0.20514 -0.240265 
284 1 0.0266649 0.721355 0.0501818 2.24807 -3.31874 0.313919 -0.475176 -0.286636 
681 1 0.0277032 0.673982 0.102441 0.679112 -3.30656 -0.322174 0.0819201 -0.323082 
682 1 0.088925 0.71076 0.097947 0.916597 -3.34006 0.155153 -0.0826109 0.301548 
285 1 0.0931644 0.705611 0.996575 1.58124 -3.22999 -0.33513 0.469869 0.705271 
281 1 0.0271482 0.675487 0.999557 0.553727 -3.3374 -0.516912 0.0688182 0.171055 
685 1 0.143808 0.661045 0.102251 0.804816 -3.26708 -0.391463 -0.365127 0.100523 
252 1 0.20251 0.647432 0.0509275 1.09752 -3.26714 0.1804 0.47192 -0.587289 
287 1 0.154266 0.694886 0.0507474 2.69452 -3.23967 -0.615239 0.666673 -0.476378 
689 1 0.206268 0.692536 0.0976202 0.743763 -3.24322 0.461431 0.229723 0.750068 
246 1 0.141841 0.65869 1.00053 0.501066 -3.31177 0.280547 0.00373359 -0.334517 
650 1 0.251599 0.644018 0.101438 1.33497 -3.32005 0.675478 0.0413312 0.0942875 
291 1 0.26602 0.684268 0.048459 0.599848 -3.26412 -0.676371 -0.340808 0.183001 
260 1 0.376 0.667144 0.0470391 1.30023 -3.26512 0.775238 0.882975 0.532198 
654 1 0.322731 0.676468 0.0986675 0.232269 -3.28738 -0.319864 -0.0851341 0.302409 
295 1 0.323688 0.718531 0.0495036 0.859766 -3.26487 0.859098 0.517121 -0.124481 
693 1 0.271469 0.723862 0.10101 0.817003 -3.28656 -0.358801 0.311953 0.0128351 
264 1 0.443732 0.7035 0.0485741 0.720253 -3.34691 0.148036 0.109062 0.254549 
263 1 0.494292 0.656637 0.0524115 0.318879 -3.34634 -0.0745548 -0.0412482 -0.31403 
658 1 0.388075 0.708088 0.096476 1.01807 -3.33067 0.183962 0.502721 0.136669 
661 1 0.436107 0.660829 0.101937 0.545048 -3.31355 0.15978 0.490606 -0.133132 
662 1 0.500412 0.702162 0.103375 1.05761 -3.27522 -0.456439 -0.678881 -0.32474 
262 1 0.497612 0.702139 -0.000897336 1.51034 -3.27408 0.452253 -0.756125 0.0487098 
258 1 0.439525 0.66097 0.00047877 1.02178 -3.32625 0.0288207 0.382193 -0.0328626 
267 1 0.609803 0.643464 0.0530229 0.56516 -3.28897 -0.326343 -0.0973369 -0.0249077 
268 1 0.553956 0.694097 0.0514872 1.02339 -3.30733 0.294497 -0.154672 -0.0789955 
666 1 0.615923 0.687066 0.0995797 0.348855 -3.29236 -0.290151 0.127436 0.0013156 
665 1 0.549594 0.653217 0.101203 0.596914 -3.31548 0.0859313 -0.268948 -0.0567138 
307 1 0.627405 0.727242 0.0545069 1.51484 -3.29822 -0.629753 0.0460394 -0.180398 
272 1 0.676303 0.677553 0.0548956 1.09187 -3.28049 0.199765 0.387392 -0.604448 
270 1 0.726386 0.675248 0.997713 1.5833 -3.32783 0.462121 -0.232122 0.625264 
311 1 0.741117 0.715877 0.0531807 1.08356 -3.33486 -0.47487 -0.316386 -0.13423 
670 1 0.736016 0.66901 0.0990454 1.82837 -3.29908 -0.149368 0.447059 0.400267 
709 1 0.6825 0.719418 0.103244 0.875728 -3.2271 -0.345657 0.433668 -0.770093 
276 1 0.785238 0.666158 0.0476656 1.47472 -3.28905 0.42478 -0.282822 0.171091 
315 1 0.856704 0.69779 0.0519556 0.503817 -3.3625 -0.0806505 0.230146 0.268203 
674 1 0.844121 0.656553 0.100995 0.617959 -3.33274 0.399665 0.38462 0.189221 
713 1 0.7985 0.706294 0.102938 0.87347 -3.3499 -0.0833784 0.0517611 -0.348774 
313 1 0.795988 0.707217 1.00485 0.594177 -3.29403 -0.253049 0.102556 -0.343902 
280 1 0.906216 0.647667 0.0549864 0.691229 -3.26485 -0.251813 0.650335 -0.445897 
319 1 0.969208 0.68174 0.0530759 0.520347 -3.32728 0.234142 -0.0370258 -0.14391 
678 1 0.96095 0.642963 0.105221 0.790989 -3.31635 0.357327 -0.19377 -0.369991 
717 1 0.911692 0.692005 0.106503 0.850518 -3.29507 -0.274641 -0.295724 -0.480299 
318 1 0.973347 0.724984 0.994138 2.26375 -3.24839 0.657003 0.501275 0.412021 
320 1 0.923718 0.730982 0.0522102 1.47625 -3.30202 -0.580941 0.17367 -0.203407 