ITEM: TIMESTEP
13750
ITEM: NUMBER OF ATOMS
4000
ITEM: BOX BOUNDS pp pp pp
2.7196229024878509e+00 3.7780377097511575e+01
-2.8389523006413997e+00 4.3338952300640585e+01
-5.8171064582149801e-01 4.1081710645821829e+01
ITEM: ATOMS id type xs ys zs c_csym c_peratom fx fy fz 
405 1 0.04715 0.0500388 0.10193 0.874258 -3.309 -0.192821 0.181551 -0.392916 
7 1 0.104455 0.0467774 0.0535932 0.442541 -3.33887 0.132046 -0.332575 0.185679 
3 1 0.0392832 0.00290338 0.0527384 7.55863 -3.29918 -0.160293 0.319743 0.0695498 
6 1 0.113551 0.0863967 0.00441943 0.442949 -3.29329 0.10668 0.636318 0.128869 
2 1 0.0527712 0.0491509 0.00222749 6.65988 -3.24169 -0.820331 -0.0452187 0.914006 
12 1 0.168786 0.0893224 0.0535384 1.98072 -3.26249 0.0448937 -0.942931 -0.44363 
11 1 0.218 0.0340853 0.0509252 0.89953 -3.36057 0.208644 0.000273715 0.0319927 
10 1 0.227077 0.075338 1.00486 1.05041 -3.34447 -0.00164013 0.0668023 -0.141726 
9 1 0.160493 0.0394165 0.00242531 0.501239 -3.32956 0.459573 -0.277006 0.278138 
16 1 0.289108 0.0732633 0.0540365 1.2248 -3.31908 -0.252649 -0.499599 -0.368262 
15 1 0.333792 0.021699 0.0529976 0.455631 -3.31411 0.160943 -0.35975 -0.107287 
413 1 0.278785 0.026734 0.100628 0.374249 -3.33254 -0.150596 -0.13265 -0.181195 
14 1 0.341175 0.0681958 0.00092717 0.79321 -3.28431 0.41645 -0.261552 0.177556 
20 1 0.391065 0.0590291 0.0540786 2.28195 -3.33115 0.81335 -0.11981 -0.319046 
19 1 0.450831 0.0123479 0.0536973 1.64634 -3.27268 -0.706866 0.177555 0.000493358 
418 1 0.453652 0.0521427 0.100967 0.620424 -3.32238 0.439158 0.302901 -0.0751455 
21 1 0.500067 0.00241844 0.00512777 0.767935 -3.31011 0.626495 0.32582 -0.164681 
17 1 0.39018 0.0149528 -0.000352627 0.763404 -3.37454 0.171645 0.181078 0.428582 
24 1 0.515691 0.0515835 0.0508187 2.24395 -3.23161 -0.873099 -0.662313 0.487371 
28 1 0.619379 0.0351065 0.0542044 0.506241 -3.30372 0.205307 0.127654 0.331674 
23 1 0.555898 0.99875 0.0533488 0.508731 -3.3445 -0.119115 -0.0840057 0.330435 
63 1 0.566962 0.0905866 0.0539533 2.36832 -3.15433 1.14234 -0.335346 -0.219809 
61 1 0.524739 0.09383 -0.000957182 1.5726 -3.30863 -0.177022 -0.0545806 0.05699 
32 1 0.729354 0.0216012 0.0429054 2.70515 -3.23711 0.819591 0.568987 0.785168 
67 1 0.684086 0.0713878 0.0563009 1.56231 -3.28443 -0.0460083 0.175443 -0.747256 
469 1 0.740833 0.0653012 0.100761 0.334125 -3.24 0.14146 -0.236767 -0.0267445 
426 1 0.68117 0.0282243 0.100868 0.697214 -3.29814 -0.0172264 -0.118828 0.203337 
26 1 0.670692 0.0302341 -0.00169536 1.49341 -3.30452 0.338112 -0.154617 0.0686991 
30 1 0.738587 0.0654024 0.999096 0.632934 -3.28916 0.0398823 -0.0801303 0.10492 
36 1 0.79666 0.0584678 0.0470387 1.00687 -3.36238 -0.236203 -0.294076 0.191498 
35 1 0.851623 0.00707417 0.0490432 2.05747 -3.28998 -0.571688 0.297397 0.174723 
434 1 0.848315 0.0523528 0.103064 6.13004 -3.25544 0.226201 -0.207954 0.181396 
430 1 0.788032 0.016416 0.0980385 1.00743 -3.32878 -0.333263 -0.0433282 -0.024608 
4 1 0.990268 0.0580723 0.0510513 6.12263 -3.3306 0.117101 -0.218216 -0.147239 
40 1 0.918555 0.0338254 0.0402674 7.29435 -3.22058 -0.0670354 0.420271 0.30052 
437 1 0.897473 0.000775319 0.108272 6.96171 -3.22331 0.709875 0.442083 -0.0919624 
8 1 0.0563385 0.0947175 0.0536905 0.554961 -3.335 -0.191241 0.0288496 0.00497927 
43 1 0.00395014 0.145036 0.0514505 0.442749 -3.26879 -0.0173841 -0.0116395 0.0048615 
45 1 0.0597055 0.136305 0.00521993 0.754387 -3.34695 0.250592 0.170754 -0.180689 
47 1 0.120658 0.136946 0.0532977 1.02912 -3.315 -0.119756 -0.298809 -0.243432 
46 1 0.134202 0.174794 0.00322958 1.88577 -3.30556 -0.747163 0.28979 0.229067 
445 1 0.0613941 0.141252 0.0977807 0.562369 -3.35969 0.0168936 -0.162975 0.245284 
446 1 0.132327 0.176969 0.10062 0.675689 -3.32641 -0.490589 0.333353 -0.163749 
52 1 0.189387 0.171154 0.0511477 0.503073 -3.31045 -0.101991 0.195738 -0.0609398 
51 1 0.239235 0.120748 0.0459014 2.2851 -3.28562 -0.268175 0.223018 0.495848 
450 1 0.244611 0.16472 0.101249 0.447134 -3.29413 -0.107048 -0.107051 0.029323 
449 1 0.182932 0.128725 0.0978304 0.74817 -3.27299 -0.166801 0.0569876 0.30968 
49 1 0.179457 0.12696 0.0053121 0.472168 -3.32326 -0.157512 -0.119305 -0.556971 
55 1 0.350034 0.108746 0.0521766 0.701134 -3.28938 0.041177 0.302224 0.363127 
56 1 0.295251 0.161396 0.052617 1.43158 -3.32541 0.671824 0.123543 -0.382165 
453 1 0.290993 0.115608 0.098631 0.6264 -3.30416 0.135909 0.09362 -0.0633866 
454 1 0.357684 0.152872 0.097697 0.749939 -3.29733 -0.386187 0.173202 -0.28795 
53 1 0.295247 0.116965 0.00268175 0.800235 -3.28066 -0.432963 -0.0760748 0.171395 
59 1 0.461154 0.0950252 0.0473217 2.71876 -3.27843 0.284728 0.416273 0.836055 
60 1 0.416955 0.146154 0.0568251 1.8001 -3.3172 0.0471695 0.130878 -0.476743 
457 1 0.410591 0.100976 0.102534 1.8157 -3.34947 -0.525049 0.0608294 -0.460684 
57 1 0.405384 0.106222 1.00527 1.21189 -3.28726 0.123789 -0.504069 -0.229318 
58 1 0.472038 0.142975 0.00252382 0.81947 -3.3516 -0.375589 -0.0999272 -0.275978 
64 1 0.522652 0.136525 0.0523089 0.583855 -3.31897 -0.0937735 0.508904 0.0614393 
103 1 0.589427 0.17623 0.0542785 0.634179 -3.3209 -0.0292295 -0.318021 -0.349686 
101 1 0.533767 0.18118 0.00267805 0.780024 -3.29624 -0.238408 -0.209819 -0.14731 
62 1 0.586488 0.131299 8.74299e-05 1.4087 -3.35243 -0.0229453 0.227392 -0.0280871 
68 1 0.632599 0.122884 0.0542011 0.927669 -3.31178 0.567766 0.0274613 -0.365818 
505 1 0.642927 0.164561 0.101973 0.732697 -3.25741 0.112548 0.330715 0.00123746 
72 1 0.696503 0.163195 0.0543181 2.10419 -3.29385 0.308737 -0.45467 -0.321279 
466 1 0.691508 0.113727 0.101744 0.55423 -3.31943 -0.0747688 0.288054 0.322707 
66 1 0.648569 0.170871 1.00319 2.41347 -3.27562 -0.667216 -0.680172 -0.46278 
75 1 0.868403 0.0812034 0.0458032 6.04293 -3.26658 0.143314 0.535146 -0.0147642 
473 1 0.80204 0.100361 0.101863 5.00008 -3.25476 0.329904 0.48998 -0.326511 
71 1 0.746463 0.110254 0.0500315 0.36671 -3.34434 -0.00194154 -0.0471297 -0.0183047 
470 1 0.754327 0.151796 0.101295 4.66282 -3.31446 0.12531 0.0632664 -0.0176133 
76 1 0.813184 0.143916 0.0457476 6.80212 -3.24839 0.0858952 -0.540182 -0.368439 
402 1 -0.0099203 0.0988962 0.0982695 0.845848 -3.2997 0.26707 0.228812 0.0870191 
79 1 0.941287 0.111491 0.0493165 2.45063 -3.28277 -0.592931 -0.361891 0.00274453 
80 1 0.890039 0.161125 0.0501599 3.13041 -3.22006 -0.184499 -0.678379 0.403777 
41 1 0.995511 0.0991787 -0.000711348 6.25225 -3.29363 0.587829 -0.0172229 0.443844 
78 1 0.946848 0.149147 -0.00268391 6.166 -3.30951 0.0485192 0.151658 0.297067 
48 1 0.0673597 0.182895 0.0484467 0.989554 -3.32851 0.451904 0.203865 0.340399 
42 1 0.00879517 0.190832 0.00547443 2.0468 -3.2465 0.564199 -0.990607 -0.703153 
83 1 0.0133815 0.230178 0.0511999 2.57603 -3.26401 0.614735 0.780457 0.121766 
88 1 0.0819535 0.272614 0.0518355 1.00787 -3.29827 0.694009 -0.291205 -0.28687 
485 1 0.082929 0.230198 0.100133 1.80184 -3.2689 0.00867655 -0.515798 -0.645048 
87 1 0.135847 0.221297 0.052335 0.502016 -3.36114 0.184696 0.0944557 0.0948777 
91 1 0.247764 0.211305 0.047947 1.13122 -3.31716 0.42859 0.253556 0.491658 
92 1 0.201261 0.263201 0.0522481 0.812487 -3.32276 -0.484132 -0.667682 0.295164 
86 1 0.142932 0.266289 0.00195239 0.366414 -3.30721 -0.119491 -0.0647275 0.334816 
489 1 0.196914 0.211761 0.101309 1.15214 -3.32714 -0.156114 0.660671 -0.0601935 
486 1 0.148298 0.266376 0.103885 1.38096 -3.35399 -0.212036 -0.135125 -0.735825 
95 1 0.368814 0.198914 0.0494876 1.60991 -3.33712 -0.66093 -0.116289 0.365876 
96 1 0.315233 0.248585 0.0540655 0.698959 -3.33674 -0.343423 -0.346746 -0.387206 
93 1 0.307803 0.20618 -0.00193217 1.45345 -3.33483 0.0637011 -0.189433 0.568715 
99 1 0.47542 0.187174 0.0484084 0.927906 -3.3202 0.138757 0.189064 0.379511 
100 1 0.424093 0.239591 0.0496502 0.758751 -3.28693 0.123985 0.213497 0.0602253 
139 1 0.493197 0.274334 0.0476637 1.03067 -3.32874 -0.142738 0.443815 0.366991 
104 1 0.540962 0.223969 0.0530945 0.737888 -3.34716 -0.292444 0.133422 -0.163971 
108 1 0.604402 0.260999 0.0474428 0.593806 -3.29761 -0.117769 0.212192 0.366826 
502 1 0.596992 0.218506 0.103455 0.559679 -3.30099 -0.0190899 0.15476 -0.309146 
541 1 0.54627 0.267238 0.101651 0.691873 -3.29858 -0.0935306 0.313326 -0.192656 
102 1 0.548734 0.268324 1.00042 0.757053 -3.29811 -0.458782 -0.234782 -0.0765556 
107 1 0.65257 0.214526 0.0529026 1.34791 -3.23023 -0.518305 -0.688201 -0.0985697 
509 1 0.710278 0.203372 0.10426 5.03352 -3.31613 -0.335652 0.181421 -0.250503 
112 1 0.71286 0.244419 0.0458599 5.70498 -3.20914 0.881904 0.162695 -0.420997 
506 1 0.661833 0.25501 0.10057 5.28675 -3.35561 0.207974 0.277531 0.184687 
115 1 0.83625 0.204278 0.0478311 8.57076 -3.23334 0.41582 0.283864 0.238975 
111 1 0.76398 0.192633 0.0414011 6.79351 -3.23866 -0.361848 0.094242 0.179243 
116 1 0.795411 0.256203 0.0442753 6.9258 -3.25641 -0.464604 -0.205687 0.732706 
114 1 0.852699 0.246182 1.00636 8.1765 -3.25645 0.183771 0.557077 -0.467931 
44 1 0.953752 0.192848 0.0528713 1.41185 -3.26045 0.121252 0.127387 -0.158435 
81 1 0.965546 0.235732 -0.00323295 2.31748 -3.24439 -0.354438 0.62957 0.258397 
119 1 0.916975 0.247022 0.0484377 4.11373 -3.27603 -0.871409 -0.0300021 -0.23258 
117 1 0.89916 0.197272 0.0034812 8.3027 -3.25324 0.102862 0.501271 -0.311185 
123 1 0.0343448 0.322141 0.0520715 0.408687 -3.31627 0.178611 -0.183461 -0.24312 
128 1 0.0964832 0.358398 0.0530475 0.706993 -3.33144 0.328881 0.123874 -0.112027 
122 1 0.043563 0.362954 0.00118948 0.334942 -3.35476 0.242129 0.0554784 0.0145089 
482 1 0.0304559 0.277163 0.0962697 0.923656 -3.26899 -0.457491 0.392651 0.046989 
522 1 0.0453627 0.364454 0.103403 0.684489 -3.32862 -0.0353033 0.26508 -0.342258 
525 1 0.0949601 0.314435 0.103099 0.812886 -3.3466 0.0710119 0.224733 -0.432739 
129 1 0.208532 0.303024 0.00419725 1.2923 -3.30039 -0.336634 0.433437 -0.364192 
127 1 0.148506 0.310255 0.0503052 0.782648 -3.35031 0.0519542 -0.108561 0.486913 
132 1 0.209258 0.347694 0.0520868 0.725165 -3.33325 0.471993 0.199473 0.0246935 
529 1 0.213774 0.302614 0.104735 2.00034 -3.19732 -0.96444 0.196152 -0.26646 
526 1 0.156433 0.354921 0.102888 0.612823 -3.34096 -0.399469 -0.281253 -0.279228 
135 1 0.369778 0.287996 0.0543995 1.97715 -3.30784 0.877987 0.231795 -0.158482 
133 1 0.322944 0.289959 -0.000966558 1.50305 -3.27867 -0.556627 0.358047 0.235932 
131 1 0.260147 0.299127 0.0550239 1.23483 -3.25543 0.991856 0.234386 -0.693461 
136 1 0.326049 0.33915 0.0497735 0.603187 -3.31313 -0.107108 -0.355671 -0.166067 
533 1 0.317507 0.29302 0.103882 0.337605 -3.28777 0.0939456 0.189148 -0.116787 
140 1 0.440092 0.32774 0.0470039 1.05522 -3.32158 -0.128926 -0.265684 0.710966 
538 1 0.496853 0.320433 0.103148 0.671717 -3.27792 -0.0182356 -0.634317 -0.345358 
577 1 0.45149 0.368655 0.10278 2.00367 -3.28541 -0.456458 0.173119 -0.350083 
144 1 0.502701 0.36354 0.0448559 1.25323 -3.18327 -0.544511 -0.544638 0.465581 
143 1 0.556405 0.316255 0.0485248 1.92936 -3.26519 -0.485769 -0.700265 0.0186347 
545 1 0.608536 0.304867 0.0993361 5.59835 -3.32832 0.215897 0.269932 -0.099964 
148 1 0.614728 0.349504 0.0377424 8.57843 -3.21729 0.659616 0.0510867 0.230343 
542 1 0.555435 0.356433 0.0988268 5.3331 -3.27049 0.101245 0.264882 0.445741 
147 1 0.671987 0.295411 0.0439686 7.25287 -3.28883 -0.414462 0.19125 -0.198785 
151 1 0.750255 0.305163 0.0475845 6.35844 -3.22633 -0.57918 -0.0336007 0.22922 
152 1 0.689489 0.357569 0.0548672 7.87729 -3.31605 0.107106 0.0365053 0.00383731 
150 1 0.745222 0.347698 0.00387922 7.53719 -3.30943 0.303475 0.272885 -0.0708778 
553 1 0.749649 0.352372 0.0980099 0.728134 -3.322 0.390583 0.0523169 0.152637 
120 1 0.858342 0.297633 0.0523987 0.933107 -3.33827 0.208271 -0.0486841 -0.52585 
153 1 0.802318 0.297992 -0.000215688 7.05435 -3.25543 -0.29382 0.151862 0.188772 
155 1 0.805481 0.345613 0.0488786 0.639372 -3.3154 0.200626 0.100892 0.297233 
157 1 0.862657 0.339662 0.00256386 0.450728 -3.28602 0.000438894 -0.413377 -0.0168017 
84 1 0.969273 0.287481 0.0456167 1.8944 -3.27151 0.380206 -0.17613 0.597397 
159 1 0.919996 0.335752 0.0505741 0.435247 -3.34146 0.115132 -0.0800938 0.172061 
121 1 0.978365 0.328549 -0.000374154 0.420784 -3.29392 0.0558471 -0.0881145 0.0179799 
163 1 0.0506339 0.408139 0.0515131 0.228255 -3.34829 -0.051284 0.216064 -0.263753 
165 1 0.106851 0.404278 -0.00185504 0.640066 -3.33899 -0.499731 -0.0488535 -0.0229019 
168 1 0.113567 0.446174 0.0477308 0.68043 -3.32253 -0.378415 0.228257 0.247545 
162 1 0.0550874 0.454053 -0.0013909 0.460351 -3.35377 -0.239441 -0.521399 0.312989 
167 1 0.159566 0.398561 0.0463951 0.928803 -3.25863 0.399141 0.168842 0.694173 
172 1 0.226068 0.433147 0.0453647 1.75175 -3.3251 -0.101549 0.384956 0.429924 
569 1 0.215649 0.391852 0.100448 0.550149 -3.31312 0.282766 0.143921 -0.215265 
566 1 0.171559 0.441973 0.0988659 0.880433 -3.30877 -0.473771 -0.237429 -0.106328 
171 1 0.278094 0.385995 0.0505879 0.780889 -3.34532 -0.369022 0.118957 -0.340101 
176 1 0.333631 0.429554 0.0452834 2.60397 -3.22749 0.180421 -0.678844 0.701245 
573 1 0.32834 0.383995 0.101556 0.605251 -3.29391 0.0853339 -0.088474 0.0118323 
570 1 0.277561 0.430289 0.103845 1.14744 -3.32213 0.243938 0.0539039 -0.474688 
175 1 0.386256 0.379215 0.0495114 1.46754 -3.3138 -0.104316 -0.207934 0.0423074 
179 1 0.450435 0.411667 0.0497558 0.956947 -3.27714 -0.212614 0.099639 -0.0709363 
180 1 0.394511 0.464805 0.0520965 2.33248 -3.25841 0.321531 0.160359 -0.672344 
578 1 0.452227 0.459973 0.0961217 7.98711 -3.32551 0.328445 -0.22716 0.274514 
183 1 0.56282 0.394361 0.0479452 6.19532 -3.2292 0.490412 0.71364 -0.367415 
581 1 0.505431 0.410653 0.106276 7.26409 -3.31119 0.459476 0.0750259 -0.466925 
184 1 0.510955 0.447116 0.0473426 7.12736 -3.24725 0.126492 -0.183725 -0.737147 
188 1 0.590256 0.457001 0.0545658 8.24352 -3.30571 0.0643054 -0.0874413 -0.210882 
189 1 0.696754 0.397877 0.00574819 6.95361 -3.32295 -0.0504141 0.204187 -0.358001 
187 1 0.640744 0.40964 0.0554112 6.14318 -3.3219 0.0436971 -0.392394 0.00898862 
191 1 0.705596 0.444312 0.0516027 0.354057 -3.26921 -0.120033 0.333393 0.0357714 
186 1 0.646829 0.449309 0.00576454 7.07149 -3.32141 0.0100245 0.121273 -0.205516 
156 1 0.752462 0.397227 0.0527549 0.835651 -3.26354 0.0374114 -0.627992 -0.0649693 
154 1 0.808483 0.388283 0.0018021 0.422229 -3.31703 0.0108515 -0.0900043 -0.145465 
160 1 0.869163 0.383098 0.0474497 0.696983 -3.32869 0.233247 0.0888881 0.528293 
195 1 0.816784 0.429627 0.0490926 1.31381 -3.27793 0.620775 0.654583 -0.030732 
193 1 0.759087 0.437298 0.00169054 0.227329 -3.30879 0.0287964 -0.0243274 -0.156695 
593 1 0.764809 0.441241 0.0945645 1.3079 -3.31886 0.0523187 0.31511 0.89883 
124 1 0.988842 0.370723 0.0512055 0.384446 -3.32139 -0.38061 0.110685 -0.130214 
158 1 0.926804 0.374404 -0.000322847 0.630333 -3.32213 0.130378 0.579991 0.161237 
197 1 0.877884 0.426981 0.00233389 0.321311 -3.38363 -0.0318152 -0.114719 -0.362911 
199 1 0.935195 0.42145 0.0512842 0.2582 -3.32749 -0.0328004 -0.29903 -0.18876 
561 1 0.993728 0.412838 0.0999764 0.470239 -3.31817 -0.00879436 0.518446 -0.156992 
205 1 0.111126 0.493789 -0.00483124 1.57302 -3.26689 0.838033 0.00604002 0.838787 
203 1 0.0647289 0.494889 0.0510505 0.881503 -3.34968 -0.24817 -0.0489438 -0.0807347 
208 1 0.121363 0.534767 0.0531214 0.561387 -3.34212 0.046876 0.283746 -0.389288 
204 1 0.0147648 0.546045 0.0499368 0.719232 -3.32964 -0.286844 -0.241671 0.515305 
201 1 0.00436241 0.500479 -0.0007501 0.628329 -3.28322 0.171019 0.424666 0.235763 
605 1 0.118501 0.495381 0.103889 2.05741 -3.1945 -0.301475 -1.02248 -0.884339 
207 1 0.168887 0.486862 0.0518035 1.09671 -3.32714 0.30255 -0.210041 -0.552003 
212 1 0.233055 0.527277 0.0512304 0.380151 -3.25676 0.264695 -0.404365 -0.0464455 
609 1 0.22848 0.477778 0.0983375 0.769992 -3.31286 0.479038 0.473346 0.0735612 
606 1 0.181303 0.527432 0.098247 1.31228 -3.25349 -0.119509 0.365683 0.63773 
211 1 0.285093 0.474949 0.0513943 0.573285 -3.325 -0.219575 0.202335 -0.0877953 
215 1 0.342344 0.51652 0.0553093 7.04983 -3.25077 0.547609 -0.458719 -0.884308 
613 1 0.346342 0.464578 0.103184 1.77556 -3.28149 -0.494886 0.53972 -0.271881 
610 1 0.290566 0.519374 0.100115 0.8261 -3.30808 -0.211945 -0.377403 0.436744 
174 1 0.338976 0.472993 0.998896 1.62056 -3.27626 -0.136885 0.242809 -0.0523081 
219 1 0.465153 0.497432 0.0420284 7.19336 -3.28151 -0.378509 -0.0829065 -0.357133 
617 1 0.405613 0.508654 0.10004 6.50048 -3.31296 -0.240175 -0.272115 -0.266885 
582 1 0.538592 0.469175 0.100817 7.60615 -3.1995 -0.245772 -0.4699 0.682339 
225 1 0.595433 0.495554 0.00365109 7.4317 -3.31844 0.523688 0.563404 0.164397 
223 1 0.542323 0.510423 0.0556546 7.13674 -3.2842 0.380381 -0.0624303 -0.518768 
227 1 0.610105 0.546061 0.0465828 1.1688 -3.29802 -0.502833 -0.301499 0.367345 
586 1 0.604049 0.503425 0.0997902 0.323279 -3.31892 0.00976212 0.237334 -0.0677859 
192 1 0.658824 0.499207 0.0518692 1.23187 -3.29002 -0.501936 -0.535155 -0.437578 
190 1 0.708567 0.486697 0.000856288 0.369521 -3.33995 -0.0982801 0.201271 0.0954867 
231 1 0.72052 0.53319 0.051507 0.413548 -3.29242 0.472403 0.680647 -0.712961 
229 1 0.659967 0.538951 -0.00255836 1.20138 -3.28493 0.332778 -0.212812 0.577972 
196 1 0.769083 0.484641 0.0479026 0.518348 -3.30662 0.181556 -0.164477 0.350205 
194 1 0.824205 0.475583 0.00351323 0.693173 -3.31496 0.378238 -0.353052 -0.509468 
235 1 0.838603 0.52097 0.043544 2.65256 -3.27832 -0.619289 -0.0999034 1.06508 
233 1 0.776611 0.521013 -0.0027754 2.31064 -3.29466 -0.221474 1.12 0.317906 
164 1 0.99623 0.45801 0.0477269 0.968636 -3.34104 0.796824 -0.272669 0.507636 
200 1 0.883336 0.471143 0.0496286 0.45621 -3.32814 0.115873 -0.179233 0.0705273 
198 1 0.943464 0.463333 0.00204021 0.565178 -3.29779 -0.392508 -0.151702 -0.399249 
239 1 0.952108 0.506647 0.0490904 0.673902 -3.31084 -0.173408 0.413842 0.33643 
237 1 0.893982 0.513108 0.00260695 0.73353 -3.26492 0.0409863 0.159118 -0.252531 
598 1 0.941703 0.465676 0.100464 0.375297 -3.31592 0.302808 -0.0247697 -0.116103 
243 1 0.0743447 0.584915 0.051908 0.334034 -3.31182 -0.164783 -0.184361 0.279174 
241 1 0.0142965 0.591353 0.00554135 0.697613 -3.29788 -0.15163 0.266914 -0.514393 
244 1 0.022831 0.633534 0.0530994 0.611476 -3.2355 0.408768 0.84301 -0.125512 
642 1 0.0791929 0.627731 0.103119 0.232321 -3.31737 0.182679 0.271104 -0.135129 
247 1 0.187286 0.575157 0.0547918 0.690486 -3.3333 -0.260096 0.24706 -0.197585 
251 1 0.253228 0.613674 0.0559493 2.42194 -3.25557 -0.687618 0.174467 -0.376308 
248 1 0.133349 0.623101 0.0526222 0.496642 -3.31205 0.331786 0.20895 0.425051 
645 1 0.130536 0.579063 0.103532 0.322871 -3.36772 0.251109 -0.106228 -0.137755 
649 1 0.238679 0.566547 0.10326 0.83686 -3.3047 0.348438 0.232385 0.0333863 
646 1 0.193374 0.619979 0.103387 1.11983 -3.33625 -0.0266509 -0.532291 -0.143683 
216 1 0.296361 0.567118 0.0527775 2.05475 -3.21827 -0.21871 -0.557149 -0.32254 
255 1 0.364282 0.59144 0.0439237 7.08313 -3.18429 0.356641 0.28965 -0.469529 
614 1 0.354981 0.558846 0.0970954 6.90649 -3.21358 -0.0538864 -0.453269 0.323565 
653 1 0.308304 0.607404 0.100167 6.07312 -3.29954 -0.18783 0.10777 0.465961 
220 1 0.414166 0.54356 0.0408708 6.93237 -3.32393 -0.0537493 -0.133962 -0.094953 
259 1 0.440482 0.603693 0.0541866 7.69614 -3.31934 0.325946 0.296371 -0.343454 
224 1 0.494206 0.558449 0.0525785 7.0643 -3.25592 -0.250629 -0.380128 0.130094 
261 1 0.493353 0.596605 0.00530284 6.64078 -3.30954 0.150443 0.386761 -0.702811 
228 1 0.558316 0.592503 0.0436552 2.37317 -3.24247 0.078379 0.276346 0.97685 
226 1 0.615829 0.589949 0.000717615 0.917758 -3.29363 -0.0981947 -0.0409897 -0.0855858 
222 1 0.54824 0.550001 0.00145851 7.67159 -3.29876 0.0312573 -0.373531 -0.0201842 
265 1 0.560687 0.637166 0.000794213 0.241649 -3.32234 0.204998 -0.105068 -0.256716 
232 1 0.668923 0.582793 0.051003 0.643076 -3.3065 0.645254 0.176149 -0.347058 
230 1 0.731971 0.578039 1.00426 1.36268 -3.38473 -0.330001 -0.726566 -0.411108 
267 1 0.618549 0.631946 0.0484573 0.395125 -3.34209 0.0741093 -0.00538336 0.205725 
271 1 0.736629 0.61958 0.0514903 0.604694 -3.35379 0.126438 0.364724 0.160528 
269 1 0.682485 0.626575 0.00121512 1.05102 -3.29629 -0.612552 -0.299194 0.258701 
236 1 0.78712 0.569191 0.0511077 0.693385 -3.28366 -0.378503 -0.194889 -0.0669961 
234 1 0.842591 0.566402 0.00409505 1.26037 -3.23668 -0.10071 -0.290228 -0.342464 
275 1 0.841009 0.608829 0.0549583 1.56654 -3.23134 0.622474 0.214884 -0.370389 
273 1 0.79623 0.612232 0.000550813 1.49015 -3.254 -0.635203 0.166462 0.220133 
240 1 0.897439 0.560611 0.0504972 0.380767 -3.34338 0.400641 0.197564 0.364649 
238 1 0.956613 0.553771 0.00577664 1.02676 -3.34817 -0.376839 0.0624 -0.400387 
277 1 0.901759 0.605833 0.00243196 0.459758 -3.29934 -0.27168 -0.373522 0.048771 
279 1 0.962514 0.602439 0.0563879 2.18058 -3.26614 -0.955914 -0.765432 -0.367897 
278 1 0.957509 0.643667 1.00282 1.50543 -3.30388 0.853746 0.00167092 0.195688 
283 1 0.0837236 0.674653 0.0531922 0.754638 -3.32919 0.037407 -0.382364 -0.0569587 
284 1 0.0331813 0.724562 0.0553145 0.626216 -3.33808 -0.184824 -0.227376 -0.261077 
681 1 0.0365415 0.681078 0.104638 2.30973 -3.28764 -0.621473 -0.184992 -0.265537 
682 1 0.10148 0.717008 0.102895 2.52429 -3.26755 -0.443474 0.114358 0.309547 
252 1 0.203867 0.660888 0.0535254 1.61532 -3.26695 -0.922823 -0.135862 -0.25798 
287 1 0.144892 0.709738 0.0526165 1.03287 -3.25956 0.742647 0.0372852 -0.319909 
689 1 0.200224 0.703097 0.104919 5.52256 -3.29354 0.469681 0.402797 -0.342283 
685 1 0.141778 0.665622 0.10392 0.467574 -3.29223 -0.12316 -0.209258 -0.0688468 
256 1 0.320989 0.641577 0.0425132 8.14215 -3.2825 -0.15914 0.476669 -0.0765781 
291 1 0.264556 0.692859 0.0421058 8.36235 -3.22333 0.469664 0.643159 -0.0524704 
295 1 0.344432 0.70939 0.0546784 7.70045 -3.29334 0.0797348 -0.371253 0.0571933 
650 1 0.255935 0.659663 0.100657 7.80875 -3.28964 0.38017 -0.337101 0.537214 
260 1 0.399617 0.658207 0.0553699 8.19982 -3.22371 -0.349309 -0.000962676 -0.557394 
297 1 0.401298 0.699488 0.00600594 7.06569 -3.26555 -0.260249 0.240774 0.0915365 
264 1 0.460821 0.696075 0.0551089 1.30706 -3.31542 -0.220143 -0.265324 -0.310715 
258 1 0.443838 0.649431 1.0025 7.41025 -3.26045 0.970496 -0.393148 0.398901 
263 1 0.509204 0.642359 0.0491168 0.469828 -3.33781 -0.38322 0.264154 0.149951 
268 1 0.573275 0.681186 0.048714 0.536099 -3.32956 -0.0692381 0.0812732 -0.031948 
262 1 0.510011 0.685434 0.0014922 0.388923 -3.30666 -0.0280197 0.163721 0.126 
305 1 0.573438 0.725314 -0.000857618 0.38911 -3.31024 0.261793 -0.339158 -0.122009 
266 1 0.624564 0.675545 -0.00355037 1.04171 -3.34997 0.168439 -0.106748 0.405595 
272 1 0.680819 0.666873 0.0504788 1.15029 -3.30441 0.0943824 0.598081 -0.350644 
270 1 0.74177 0.665493 0.00415941 0.47737 -3.28515 -0.140065 -0.320489 0.178085 
307 1 0.63406 0.720659 0.0491977 0.821733 -3.36753 0.103156 -0.118273 -0.235728 
309 1 0.690845 0.714083 -0.000841993 0.655609 -3.34088 -0.512813 -0.0590676 0.58643 
276 1 0.797854 0.661636 0.0525629 1.07996 -3.33461 -0.455269 -0.341193 0.165794 
274 1 0.846469 0.655034 0.00168759 1.05082 -3.29116 0.67855 -0.142948 0.266424 
311 1 0.744982 0.712468 0.0540466 1.32032 -3.34116 -0.382251 -0.380507 -0.0064076 
315 1 0.859867 0.696824 0.0561227 1.19536 -3.36074 0.00982327 0.28959 -0.253579 
313 1 0.796337 0.704416 1.00416 0.676769 -3.2615 0.334659 0.16916 0.14275 
280 1 0.902239 0.643743 0.0540964 2.28582 -3.28109 0.518449 0.836197 -0.23438 
319 1 0.969483 0.685507 0.0547563 0.343017 -3.38292 0.0159684 -0.0887935 -0.0745787 
678 1 0.972472 0.643758 0.104877 2.09766 -3.28593 -0.793866 -0.128457 -0.218693 
288 1 0.0975125 0.759711 0.0491558 0.329028 -3.32224 -0.0230013 0.13871 0.247873 
725 1 0.110704 0.802782 0.097246 5.83884 -3.28552 -0.509952 0.506207 0.18915 
323 1 0.0443329 0.811797 0.0460243 1.43032 -3.28407 0.146257 -0.321818 0.321737 
721 1 0.042986 0.764349 0.102572 0.663938 -3.29216 0.219466 0.327517 -0.0231824 
292 1 0.209692 0.74266 0.0433196 7.76765 -3.29013 0.129056 -0.117713 -0.234501 
327 1 0.166721 0.796367 0.0425285 7.15245 -3.31497 -0.473414 0.25067 -0.0648031 
686 1 0.15954 0.758642 0.0996938 8.27096 -3.2781 0.131171 -0.506849 -0.129219 
331 1 0.244581 0.80524 0.0555334 8.04726 -3.21982 -0.250741 0.527462 -0.167606 
690 1 0.240677 0.760141 0.0963915 9.69811 -3.19927 -0.485532 0.0653641 0.726595 
296 1 0.29149 0.756607 0.0479373 7.42839 -3.22407 0.231319 -0.0863657 0.498251 
294 1 0.351373 0.747627 0.00571884 6.61298 -3.28024 -0.137186 0.669922 -0.252576 
300 1 0.35563 0.796348 0.0549098 0.547223 -3.29656 0.327818 0.266568 -0.657631 
333 1 0.299627 0.80619 0.00731209 8.04754 -3.3218 -0.0313834 -0.404746 -0.556985 
694 1 0.302054 0.797913 0.0974787 1.17852 -3.19123 -0.161603 0.719684 0.35715 
299 1 0.407975 0.747721 0.0519302 0.332372 -3.30357 0.0247489 -0.160773 0.323313 
304 1 0.472662 0.78738 0.0497624 1.21678 -3.32309 -0.22699 -0.458724 -0.036693 
301 1 0.457915 0.738631 0.00398618 0.786417 -3.32379 0.520054 0.0564976 -0.19104 
698 1 0.415848 0.791104 0.098314 0.585659 -3.26545 -0.193133 -0.356643 0.362384 
298 1 0.410874 0.790948 0.00489489 0.345403 -3.33205 -0.022918 0.0692233 -0.0473109 
303 1 0.520989 0.729413 0.0453351 1.92977 -3.2364 -0.27654 0.314901 0.465165 
308 1 0.577443 0.767207 0.0491382 1.26946 -3.27377 0.406798 0.792261 0.0747025 
302 1 0.52526 0.775309 0.00112917 0.385211 -3.31652 -0.332929 0.0124163 -0.11572 
702 1 0.525401 0.779622 0.10095 0.626809 -3.31158 0.144387 -0.261499 -0.128064 
345 1 0.58757 0.813846 0.00109813 0.293785 -3.2933 0.205639 -0.0395866 0.235866 
312 1 0.696374 0.76015 0.0508923 1.12981 -3.33365 -0.680959 -0.171139 0.391914 
306 1 0.634315 0.763994 0.00170702 0.506114 -3.2977 0.423225 -0.356451 0.183377 
347 1 0.640565 0.808006 0.0499487 0.640298 -3.36896 0.0835818 0.194327 0.529067 
349 1 0.694228 0.803517 0.00312166 1.12202 -3.31641 0.625875 0.181048 0.0954099 
310 1 0.746182 0.754846 0.0018974 0.679775 -3.25876 0.366646 -0.0108778 0.211641 
351 1 0.7561 0.797212 0.0574113 0.973581 -3.32475 -0.233177 0.254825 -0.374673 
316 1 0.808119 0.748208 0.0528789 0.663555 -3.33479 -0.0411474 -0.0686447 0.0403746 
355 1 0.87298 0.785299 0.0503066 1.76388 -3.31535 -0.563549 -0.0703154 -0.179031 
353 1 0.807861 0.790608 0.00382655 0.434045 -3.36741 0.39349 0.156238 -0.205965 
314 1 0.858925 0.739529 -0.000376699 0.748949 -3.31028 0.400749 0.655212 0.547984 
320 1 0.922427 0.736516 0.0533962 0.859159 -3.27882 -0.56278 -0.536471 0.0809584 
359 1 0.978875 0.775448 0.0540966 1.17843 -3.30276 0.422234 0.0218083 -0.358945 
328 1 0.113186 0.84509 0.041994 6.30872 -3.33671 -0.0439214 -0.00946771 -0.0233586 
363 1 0.0591829 0.897795 0.0426841 7.01467 -3.28631 0.181223 -0.550657 -0.232832 
722 1 0.0578806 0.853266 0.0982189 4.67397 -3.33893 0.12938 -0.0887112 -0.0272658 
761 1 0.00457566 0.90321 0.103067 7.07595 -3.27892 -0.397726 -0.282446 -0.278015 
332 1 0.196638 0.859019 0.0502162 6.95016 -3.27719 -0.330519 -0.501449 -0.0308528 
367 1 0.144676 0.904292 0.0534068 8.2785 -3.28375 0.0937257 0.293827 -0.547069 
730 1 0.205467 0.90036 0.0997607 0.644942 -3.2044 -0.570646 0.476624 -0.00348155 
369 1 0.200151 0.903599 0.0035996 6.90498 -3.32768 -0.46725 0.182442 -0.0642242 
336 1 0.256381 0.898733 0.0542061 1.1158 -3.23483 0.349494 0.158137 -1.22924 
330 1 0.249979 0.85654 0.0010038 6.69188 -3.32873 0.0922463 -0.420382 0.0194337 
335 1 0.304187 0.849134 0.0507329 0.924643 -3.26457 0.612339 -0.0676855 0.108496 
340 1 0.37363 0.885733 0.0541006 0.607872 -3.34472 -0.312925 -0.253244 0.303564 
337 1 0.361638 0.843006 0.00495838 0.432459 -3.32368 0.165819 -0.348334 -0.0588872 
334 1 0.316093 0.892861 0.00485475 0.575204 -3.30493 -0.379645 -0.139143 -0.369124 
339 1 0.419579 0.833382 0.0545173 0.496192 -3.33638 -0.183228 0.320737 -0.34065 
344 1 0.480073 0.872938 0.0529148 0.588139 -3.33698 0.21637 -0.142148 0.180537 
738 1 0.428671 0.876296 0.105179 0.904919 -3.31982 -0.318235 0.53609 -0.391645 
741 1 0.474385 0.829192 0.102768 0.416655 -3.26937 0.635985 -0.215625 -0.175424 
338 1 0.423282 0.878547 0.00726877 1 -3.25561 0.477386 -0.196334 -0.60765 
341 1 0.476093 0.830869 0.000499848 1.33471 -3.33361 -0.211187 -0.4226 0.404725 
343 1 0.532821 0.822353 0.050536 0.334402 -3.34216 0.0809837 -0.0609152 0.249987 
348 1 0.593866 0.85984 0.0561029 0.756352 -3.35387 0.0601806 -0.284045 -0.129389 
383 1 0.545481 0.91152 0.0583067 1.36084 -3.30904 -0.198486 -0.117765 -0.643262 
342 1 0.540495 0.862549 0.00305359 0.540876 -3.28172 -0.248819 0.369263 0.164322 
385 1 0.60103 0.900151 0.00781211 1.27252 -3.24418 -0.46352 0.291032 -0.589963 
352 1 0.705036 0.851366 0.0537426 0.742538 -3.31897 -0.0486721 -0.676406 0.0562215 
389 1 0.709286 0.893071 0.000333702 0.472331 -3.2953 0.321013 0.239282 0.211724 
387 1 0.65606 0.899089 0.0498552 0.646156 -3.25687 0.356423 0.215886 0.475246 
346 1 0.653182 0.854562 0.00392007 1.11776 -3.30788 -0.511429 -0.450477 -0.281191 
356 1 0.815385 0.834268 0.0544562 0.794441 -3.27528 -0.0392551 -0.0328209 -0.439014 
391 1 0.770069 0.886251 0.0544382 0.995978 -3.27708 -0.758953 0.312132 -0.417947 
350 1 0.760317 0.844303 1.00466 0.576402 -3.3321 -0.328747 -0.559215 0.0216644 
393 1 0.820616 0.878803 1.00372 0.280034 -3.27972 -0.170403 0.198148 -0.139547 
324 1 0.996058 0.862747 0.0487245 1.67144 -3.34544 -0.0174378 -0.121935 0.0180009 
354 1 0.868106 0.830572 -0.000681672 1.24583 -3.28962 0.237116 -0.705604 0.597603 
395 1 0.877716 0.87636 0.0506064 1.11704 -3.1839 -0.572654 -0.586903 0.0542952 
360 1 0.927564 0.82878 0.0511951 2.18216 -3.26873 0.416828 -0.684047 -0.257006 
399 1 0.938383 0.905291 0.0548491 6.85808 -3.11771 0.651783 0.553396 -0.498633 
368 1 0.0906946 0.951997 0.0532751 7.4198 -3.27993 -0.0110869 0.334086 -0.217399 
364 1 0.0019346 0.93674 0.0418604 9.8038 -3.24005 0.397531 0.148961 -0.235029 
766 1 0.0917102 0.997939 0.100651 1.18931 -3.25378 0.674645 0.289962 -0.21182 
5 1 0.0956758 1.0005 0.00688901 8.30561 -3.30663 0.318732 -0.319634 -0.148581 
371 1 0.210318 0.951227 0.048214 2.1799 -3.31405 -0.352654 -0.692467 0.108305 
372 1 0.154705 0.995549 0.0551044 0.937481 -3.3151 -0.19031 0.315984 -0.286359 