ITEM: TIMESTEP
9500
ITEM: NUMBER OF ATOMS
4000
ITEM: BOX BOUNDS pp pp pp
1.8558072194220487e+00 3.8644192780577377e+01
-9.4518516686985987e-01 4.1445185166868995e+01
-9.5602017465969003e-01 4.1456020174659393e+01
ITEM: ATOMS id type xs ys zs c_csym c_peratom fx fy fz 
8 1 0.100046 0.0482117 0.0537815 1.04411 -3.23711 -0.0809075 -0.183254 -0.828256 
2 1 0.0490865 0.0497187 0.996938 0.968575 -3.31294 0.315567 -0.473909 0.536601 
3 1 0.0498737 0.000374958 0.0499953 0.33966 -3.31049 0.111422 -0.136617 -0.0565694 
4 1 1.00318 0.0513629 0.0558007 2.23868 -3.32401 -0.284198 -0.335721 -0.42358 
43 1 0.0540612 0.0974949 0.0515645 0.746612 -3.33091 -0.0350506 0.489509 -0.0716186 
1 1 0.996019 -0.0024182 1.00445 1.44832 -3.27656 0.728408 0.196158 -0.715389 
445 1 0.100612 0.0973783 0.102875 0.479453 -3.23746 0.249789 0.204116 -0.36383 
5 1 0.103298 1.00228 -0.0013589 0.712675 -3.3658 -0.24337 -0.319973 0.215299 
12 1 0.200452 0.0504395 0.0514564 0.440081 -3.34276 -0.0661386 -0.131571 -0.164406 
51 1 0.251096 0.099521 0.0500701 0.592754 -3.22736 -0.572965 0.746311 -0.386669 
11 1 0.250197 0.999927 0.0486926 0.411878 -3.30779 0.0740119 0.272729 0.309271 
406 1 0.148781 0.0474288 0.10054 0.331615 -3.25734 0.705868 0.211252 -0.052202 
16 1 0.295193 0.0537932 0.0529067 1.41191 -3.17017 0.370875 -0.751829 -0.894583 
55 1 0.345761 0.101599 0.0490905 0.681578 -3.30645 0.262406 0.0242205 0.136416 
410 1 0.24952 0.0524842 0.101102 0.354592 -3.24188 0.101939 -0.537622 0.286211 
10 1 0.249739 0.0500684 0.998736 0.31297 -3.29565 0.0388379 0.0333424 0.339105 
14 1 0.348069 0.050417 -0.00269283 0.561816 -3.20984 -0.216951 0.222817 0.497389 
20 1 0.400877 0.0550828 0.0512426 1.36636 -3.23121 -0.344495 -0.249034 0.0810171 
457 1 0.400912 0.104464 0.101411 0.893417 -3.3283 -0.0790188 -0.602437 -0.224821 
59 1 0.451218 0.100855 0.0514278 0.405422 -3.33144 0.403477 0.165164 -0.197605 
418 1 0.44916 0.0477357 0.100435 0.82824 -3.30714 -0.0406967 0.554576 0.102781 
24 1 0.498831 0.0494103 0.0500215 0.484089 -3.29214 0.259858 0.277925 0.0866467 
422 1 0.548845 0.0485995 0.101905 0.497798 -3.35221 -0.0619398 0.0674439 0.300993 
28 1 0.597136 0.0479462 0.054628 0.766249 -3.26337 0.278881 0.439304 -0.311162 
461 1 0.50289 0.103606 0.10334 0.951473 -3.30737 -0.255032 -0.323079 0.200021 
25 1 0.601202 0.00165522 0.00304164 0.385375 -3.29794 0.211429 -0.561463 -0.139268 
426 1 0.648328 0.046361 0.101389 0.92059 -3.28118 0.189565 0.663472 -0.00984811 
27 1 0.649398 -0.00234471 0.0525956 0.325239 -3.27018 0.213745 0.449733 -0.0770283 
32 1 0.701632 0.0513412 0.050679 1.07163 -3.33493 0.132178 -0.217416 0.448407 
469 1 0.702703 0.0965263 0.102223 1.07858 -3.32249 -0.476124 0.292249 -0.104557 
26 1 0.650631 0.0496463 1.00392 0.277132 -3.33177 -0.294492 0.120467 0.0968874 
36 1 0.799304 0.0522406 0.0505106 1.35317 -3.32862 -0.519207 -0.498507 0.470584 
35 1 0.844747 0.996199 0.0538261 1.7211 -3.36992 0.391157 0.301762 -0.247405 
473 1 0.798234 0.102097 0.101221 0.890936 -3.21953 0.0540499 -0.45408 0.0793204 
31 1 0.750555 -0.00277346 0.0545304 0.754302 -3.35346 0.373429 0.273612 -0.329147 
430 1 0.751635 0.0449903 0.105708 1.38887 -3.30247 0.29403 0.317961 -0.495448 
401 1 -0.00149906 -0.00087083 0.100838 0.743488 -3.34011 0.187667 -0.213881 -0.231466 
40 1 0.90278 0.0446188 0.0527506 1.01953 -3.31389 -0.485698 0.169061 0.0866445 
438 1 0.94931 0.0482877 0.100595 0.531541 -3.33023 0.207473 0.0971131 0.506412 
39 1 0.948221 0.993447 0.0494279 0.811204 -3.23332 0.0974046 0.366967 0.513408 
48 1 0.104795 0.152651 0.0477871 5.76876 -3.33839 -0.166862 -0.37849 0.275195 
44 1 0.00153945 0.148558 0.0527808 0.584497 -3.3158 -0.0352267 -0.0560607 0.0626549 
47 1 0.145439 0.0974514 0.0482449 1.40348 -3.28337 0.278962 0.0545228 0.4187 
52 1 0.193111 0.145817 0.048564 2.50685 -3.33248 0.320077 0.442588 0.159977 
50 1 0.248371 0.148706 0.998509 0.469576 -3.24796 -0.0296669 0.402778 0.484313 
56 1 0.300935 0.151382 0.0499497 0.50582 -3.31867 -0.251722 0.153845 -0.343596 
91 1 0.247592 0.197515 0.0486364 0.932004 -3.27812 0.435457 -0.0440272 -0.283415 
95 1 0.349282 0.201249 0.0543884 1.47723 -3.28398 0.437453 -0.485843 -0.538777 
450 1 0.24436 0.151443 0.0979573 0.741413 -3.26051 0.127294 -0.082154 -0.12063 
454 1 0.348348 0.148965 0.0991201 0.704109 -3.32024 0.287427 0.296822 -0.0645083 
60 1 0.402826 0.150993 0.0484907 0.639435 -3.35209 -0.419619 0.0274318 0.113254 
64 1 0.502029 0.152518 0.0474718 0.560881 -3.29955 -0.42316 -0.13838 0.0743941 
97 1 0.399395 0.201547 -0.00235414 0.650501 -3.29538 0.28397 -0.122985 0.545362 
58 1 0.44774 0.148716 -0.00376731 1.38314 -3.29768 0.294897 -0.0936694 0.752034 
63 1 0.545649 0.101397 0.0528109 1.18734 -3.24791 0.62467 -0.205607 -0.206702 
68 1 0.601743 0.150904 0.0491763 0.519945 -3.30287 -0.431878 -0.146281 0.138023 
103 1 0.551344 0.200513 0.0495464 0.334347 -3.2585 -0.418943 -0.0920047 -0.00373025 
462 1 0.549581 0.155162 0.0997173 0.656467 -3.3068 -0.276652 -0.170153 -0.0157191 
71 1 0.751715 0.103097 0.0547859 1.57753 -3.28473 -0.322839 -0.178951 -0.721989 
67 1 0.647234 0.0968421 0.053128 1.03568 -3.3449 0.267129 0.255981 -0.134233 
72 1 0.700064 0.151229 0.050105 0.258158 -3.27599 0.168821 -0.466064 -0.204432 
107 1 0.651973 0.198471 0.0471632 0.388097 -3.26836 -0.354984 0.439549 0.0363261 
111 1 0.753321 0.200848 0.047345 0.606069 -3.2839 -0.226763 -0.526763 0.0473325 
70 1 0.751686 0.148021 1.00118 0.347714 -3.35817 0.060422 -0.148717 0.0479316 
75 1 0.851703 0.099974 0.0526411 0.431829 -3.27151 -0.094249 -0.0723818 0.0225797 
76 1 0.804827 0.15036 0.0511712 0.854515 -3.23221 -0.935078 0.0826362 0.0876858 
513 1 0.799761 0.202509 0.100983 0.881345 -3.3128 0.692602 -0.327976 -0.182369 
74 1 0.849095 0.147936 1.00422 0.886878 -3.27551 0.261386 0.0333098 -0.772974 
79 1 0.949485 0.100116 0.0487531 0.94072 -3.2768 0.0359881 -0.293029 0.617081 
80 1 0.903512 0.152538 0.0500399 1.28408 -3.32802 -0.37265 -0.285283 0.540593 
78 1 0.951288 0.145786 1.00229 0.810164 -3.22996 0.512812 0.0179682 0.0181146 
117 1 0.908737 0.197766 0.00320531 2.3407 -3.2572 -0.773694 0.125137 -0.890245 
41 1 0.998398 0.09301 1.00343 1.7665 -3.23509 0.245301 0.515454 -0.257787 
485 1 0.10134 0.199174 0.101676 0.512204 -3.25402 -0.0393775 0.0367764 -0.526757 
81 1 -0.000608835 0.196698 0.997045 0.816115 -3.30348 0.180863 0.287382 0.199108 
83 1 0.0516717 0.198137 0.0484267 0.323478 -3.25956 -0.669407 -0.314712 0.530671 
88 1 0.0963312 0.246103 0.0473454 1.19335 -3.22681 0.286658 0.847594 0.130599 
82 1 0.0503634 0.248508 0.997659 0.265958 -3.24979 -0.220449 0.0953428 0.060766 
84 1 1.00276 0.248029 0.048146 0.430769 -3.28968 0.0598451 0.26102 0.382434 
121 1 1.0015 0.297086 0.998926 0.630958 -3.28389 0.21497 0.549372 -0.0787293 
87 1 0.149892 0.20387 0.0511339 2.04136 -3.27744 0.369681 -0.550446 -0.452433 
92 1 0.205871 0.25263 0.0454716 2.00009 -3.30951 -0.481124 -0.308469 0.282587 
127 1 0.148407 0.299274 0.0467036 0.392762 -3.31459 0.323146 -0.064246 0.0474358 
131 1 0.250221 0.301837 0.0525439 1.14763 -3.27588 0.470882 -0.0425194 -0.589909 
489 1 0.202106 0.202702 0.0958047 1.91355 -3.23719 -0.596023 0.043611 0.397396 
86 1 0.14798 0.245439 0.999213 1.3752 -3.3261 0.0600977 0.599657 0.221915 
96 1 0.300587 0.247045 0.0513602 0.916549 -3.30566 -0.397814 0.517003 -0.191574 
533 1 0.30564 0.298391 0.0966354 1.70372 -3.27697 -0.28754 0.322991 0.329178 
493 1 0.295565 0.200021 0.0991693 0.622797 -3.29531 0.136258 0.208137 0.134796 
494 1 0.353103 0.24926 0.100224 0.515883 -3.28641 -0.167509 -0.03558 0.105989 
99 1 0.451409 0.200889 0.0493101 0.201843 -3.274 0.126753 -0.141381 -0.118743 
100 1 0.403045 0.247114 0.051427 1.14465 -3.24866 -0.370594 0.399244 -0.403354 
98 1 0.449553 0.250133 0.000775308 0.348485 -3.33459 0.535175 -0.0455872 -0.135731 
498 1 0.448075 0.252541 0.101027 0.74223 -3.28379 0.332351 0.279628 0.00454496 
537 1 0.40033 0.304459 0.0966511 1.68895 -3.28333 0.0478443 -0.353902 0.48599 
104 1 0.501676 0.254239 0.0514695 0.643984 -3.3697 -0.190192 -0.00338875 0.208339 
143 1 0.555256 0.306015 0.0499259 2.31166 -3.24598 -0.924608 -0.976581 -0.0855937 
502 1 0.551441 0.250254 0.102475 0.996835 -3.31514 -0.00696223 0.363853 -0.314012 
108 1 0.599586 0.246487 0.0488977 1.07584 -3.32622 0.318153 0.839313 0.0755989 
541 1 0.496738 0.305972 0.0968073 1.87276 -3.25749 0.609144 -0.826939 -0.053814 
102 1 0.546487 0.250731 1.00315 1.32751 -3.28658 0.200263 0.19328 -0.38756 
112 1 0.700925 0.247644 0.0487113 0.234219 -3.32444 -0.265989 0.274772 -0.105198 
151 1 0.749473 0.298163 0.0503231 0.299793 -3.29994 -0.250313 -0.057481 0.0772449 
110 1 0.752332 0.24885 1.0007 0.471387 -3.32973 -0.106835 0.130567 -0.162091 
109 1 0.701218 0.198942 0.997854 0.367187 -3.3319 0.194628 -0.132622 0.0798386 
149 1 0.693835 0.300312 0.00181331 1.4888 -3.25487 0.753053 -0.0368749 0.0892734 
113 1 0.799469 0.196484 0.99698 1.06785 -3.27864 -0.357103 0.196288 0.087691 
115 1 0.850412 0.199591 0.0440032 3.02437 -3.24601 0.0830754 -0.0204655 0.998619 
116 1 0.800083 0.24783 0.0512427 0.637363 -3.29074 0.793394 0.467669 -0.135331 
155 1 0.858328 0.296996 0.053648 1.9178 -3.23382 -1.03684 0.0857545 -0.479221 
114 1 0.853544 0.246208 1.00178 0.925592 -3.31033 -0.450837 0.442167 -0.139006 
119 1 0.955562 0.200336 0.0482267 1.40881 -3.2567 0.0859894 -0.120919 1.08372 
120 1 0.900682 0.247721 0.0511463 1.09055 -3.27696 0.455481 -0.366044 0.20375 
518 1 0.952692 0.24695 0.101824 0.722735 -3.30609 -0.207027 -0.471773 -0.373145 
525 1 0.103023 0.297128 0.0972757 1.45275 -3.29723 -0.406239 0.18011 0.372807 
123 1 0.0477952 0.301336 0.0493656 0.979183 -3.25297 -0.0106048 -0.52504 0.257482 
128 1 0.095285 0.348414 0.0548161 2.27269 -3.17324 0.733826 0.141997 -0.89863 
522 1 0.0553876 0.350048 0.102463 1.46772 -3.20339 -1.08637 -0.40852 0.49671 
132 1 0.204111 0.352208 0.0475755 1.02194 -3.33462 -0.127525 -0.0666117 0.12775 
126 1 0.1455 0.351213 1.00576 2.15628 -3.37511 0.231581 0.0440642 -0.543047 
530 1 0.252626 0.347462 0.0998842 0.641802 -3.3177 -0.11299 -0.0108586 0.143488 
136 1 0.301243 0.352498 0.0491477 0.716827 -3.32193 -0.117258 -0.371893 -0.0491911 
171 1 0.252862 0.404063 0.0518951 1.1536 -3.27296 0.0556153 -0.467984 -0.44097 
135 1 0.352877 0.295991 0.0485415 1.07812 -3.33527 -0.144425 0.321918 -0.43182 
134 1 0.352508 0.347279 0.00172941 1.0063 -3.30165 0.0295222 0.274105 -0.134462 
534 1 0.348977 0.351716 0.102477 1.04014 -3.24872 0.254913 -0.159845 -0.349783 
139 1 0.447512 0.301338 0.0487119 0.399471 -3.28248 0.287782 -0.0507746 -0.20832 
140 1 0.40016 0.351262 0.0493916 0.303122 -3.25023 -0.0206993 -0.16415 0.158372 
144 1 0.496623 0.353663 0.0455417 0.755867 -3.27145 0.000716351 -0.490739 0.506907 
148 1 0.599528 0.352386 0.052096 0.518613 -3.20462 0.474949 0.440464 -0.209485 
185 1 0.600014 0.400743 1.00027 0.225448 -3.32599 -0.0882229 -0.030803 -0.101529 
145 1 0.59698 0.301371 -0.0014201 0.940214 -3.31002 0.547214 -0.313407 0.187996 
542 1 0.550321 0.349691 0.0982224 0.633108 -3.26636 -0.212356 0.463896 0.214501 
147 1 0.650298 0.298314 0.0507109 0.280168 -3.33568 -0.467085 -0.129211 0.302232 
152 1 0.699704 0.348184 0.0549482 0.999358 -3.27916 -0.242288 0.168176 -0.217903 
550 1 0.751619 0.350641 0.101394 0.325953 -3.28698 -0.14428 -0.0730146 -0.000628441 
146 1 0.647337 0.351128 1.00476 0.87488 -3.32818 0.415751 0.0879401 -0.274037 
156 1 0.801501 0.344743 0.0539729 1.17552 -3.31902 0.180085 0.63697 -0.446547 
195 1 0.853998 0.401464 0.0499759 1.21935 -3.32579 -0.531149 -0.405913 0.176582 
154 1 0.849059 0.344503 1.00051 1.79021 -3.24272 0.0273468 1.07456 0.632662 
150 1 0.745954 0.349533 1.00555 1.16746 -3.28394 0.601502 -0.023559 -0.0558423 
153 1 0.800825 0.299842 1.00404 0.530634 -3.2861 0.185293 -0.532824 0.0971335 
159 1 0.949293 0.300961 0.0433852 2.44495 -3.28718 0.393889 -0.116085 0.698519 
157 1 0.898233 0.300251 0.997581 1.15098 -3.2141 0.333524 -0.498568 0.367036 
124 1 0.00565722 0.352683 0.0511592 1.06493 -3.33357 -0.355892 -0.290754 -0.0701396 
160 1 0.900397 0.349438 0.0500417 0.706014 -3.28623 0.0869965 0.114175 0.0604813 
163 1 0.0526527 0.401984 0.0515289 0.332656 -3.19375 -0.176979 -0.00955784 -0.371055 
168 1 0.102275 0.449364 0.052998 0.278054 -3.30896 -0.072583 0.200524 -0.140855 
164 1 0.00215642 0.450536 0.0499336 0.274405 -3.27725 -0.106134 -0.224994 0.485301 
162 1 0.0499775 0.449664 1.00224 0.32685 -3.21763 -0.287475 -0.0706045 0.0344537 
565 1 0.100878 0.399731 0.097687 0.75109 -3.25356 0.423731 0.277848 0.72405 
562 1 0.0496254 0.451519 0.102555 0.493337 -3.32134 0.260152 0.160796 -0.151653 
167 1 0.15122 0.399421 0.0520411 0.469416 -3.31399 0.101839 0.00910732 -0.542368 
172 1 0.201744 0.447082 0.0485817 0.60585 -3.27517 -0.413923 0.229067 -0.184721 
170 1 0.256668 0.448356 0.000493404 1.39538 -3.22279 -0.769386 0.140382 0.0838522 
569 1 0.201726 0.398401 0.100779 0.403029 -3.30322 0.202365 0.134256 -0.00868901 
573 1 0.29831 0.398967 0.100436 0.920933 -3.2822 0.375401 0.44457 0.268915 
175 1 0.35293 0.398462 0.0540207 6.22339 -3.27732 -0.323545 0.309382 -0.407981 
176 1 0.306645 0.450109 0.0485562 1.54013 -3.29842 -0.243028 -0.0748445 0.454549 
574 1 0.355811 0.451599 0.101228 1.07004 -3.23911 -0.958173 -0.0801965 0.119312 
173 1 0.304715 0.402985 -0.00111498 0.80928 -3.33962 0.311522 -0.570349 0.0877246 
174 1 0.350166 0.455326 -0.00498242 6.816 -3.21455 0.126291 -0.481361 0.337962 
179 1 0.44592 0.402498 0.0491798 0.465764 -3.30256 -0.0301944 -0.0717105 0.300452 
180 1 0.397042 0.451761 0.0504938 0.492116 -3.24063 0.156658 -0.0896734 -0.528457 
184 1 0.499573 0.44718 0.0470209 1.37134 -3.26163 -0.0087041 0.714311 0.296833 
219 1 0.450657 0.500185 0.0479712 0.5939 -3.32314 -0.184347 -0.102848 -0.151073 
178 1 0.4482 0.451236 1.00161 0.771927 -3.31827 0.0573242 0.322912 -0.390683 
577 1 0.398707 0.400875 0.103236 0.670888 -3.24398 0.586572 -0.10466 -0.0274034 
217 1 0.398238 0.501763 -0.0027022 0.40675 -3.30485 0.390179 0.278876 0.276427 
183 1 0.546223 0.399959 0.0452852 0.884049 -3.22211 0.712624 -0.0317796 0.344795 
223 1 0.546935 0.502783 0.0510651 0.887917 -3.29032 0.339183 -0.582848 -0.0551882 
188 1 0.596941 0.448345 0.0502857 0.711485 -3.32126 -0.0840415 0.406804 -0.0494418 
182 1 0.548365 0.450831 0.998006 0.596233 -3.34741 -0.0212522 -0.0961126 -0.0340723 
187 1 0.649511 0.403947 0.0537068 0.866409 -3.27922 -0.0353204 -0.445287 -0.703818 
192 1 0.698588 0.453131 0.0518607 0.402931 -3.33634 0.275253 -0.102675 -0.0543252 
227 1 0.647387 0.499758 0.0517492 0.615575 -3.26352 0.449088 -0.24488 0.225766 
590 1 0.753153 0.450413 0.100534 0.534464 -3.32579 -0.11702 0.204285 -0.0311952 
629 1 0.70178 0.500866 0.103153 0.990085 -3.26743 -0.195218 -0.103036 -0.605221 
191 1 0.748616 0.397638 0.0507907 0.586086 -3.30904 0.199679 0.180549 -0.0342219 
196 1 0.796423 0.448643 0.048693 1.64591 -3.31496 0.577334 0.178937 0.439502 
231 1 0.749763 0.50307 0.0528826 0.883441 -3.29316 0.15688 -0.410662 -0.259212 
633 1 0.804219 0.500721 0.101239 0.517347 -3.30431 -0.378258 0.128492 -0.0246881 
199 1 0.951586 0.397474 0.0513702 0.647179 -3.30926 -0.0496813 0.28683 0.27315 
561 1 0.00550299 0.402445 0.0985884 0.968148 -3.28358 -0.507068 -0.246306 0.184113 
200 1 0.904883 0.45109 0.0532582 0.628574 -3.32001 -0.361865 -0.0507397 -0.156524 
239 1 0.954594 0.49809 0.0503384 0.543655 -3.26675 -0.30526 0.316555 0.186699 
237 1 0.906278 0.497591 0.000944305 1.41416 -3.31011 -0.871697 0.255337 0.622537 
597 1 0.892529 0.400297 0.104128 3.74552 -3.26208 0.908624 0.191201 -0.197718 
197 1 0.905205 0.39596 1.00251 0.931359 -3.22429 -0.489563 0.592175 0.0393858 
161 1 1.00255 0.39929 0.999543 0.485607 -3.28565 0.0412101 -0.146798 0.407145 
203 1 0.0495449 0.500323 0.0541218 0.555173 -3.31668 0.071768 0.0817272 -0.0296482 
208 1 0.102171 0.548985 0.0481296 1.34945 -3.32457 0.0324308 0.117213 -0.000269628 
245 1 0.101236 0.601363 0.00251555 0.854023 -3.3015 0.308498 -0.570884 -0.181204 
605 1 0.104079 0.498606 0.105664 1.05446 -3.26677 -0.348232 -0.428972 -0.321594 
602 1 0.0546156 0.547955 0.10529 0.99193 -3.26346 0.0792288 -0.194481 -0.493435 
207 1 0.151772 0.499255 0.0509472 0.497043 -3.3044 0.154415 -0.102066 -0.00114672 
209 1 0.200761 0.496665 -0.000836422 0.827221 -3.29519 0.119795 0.28284 0.152429 
212 1 0.199649 0.549756 0.051644 0.530759 -3.30254 0.0568163 -0.126535 -0.122916 
247 1 0.153239 0.600777 0.0498573 0.609239 -3.3218 -0.333536 0.0123561 0.159751 
206 1 0.155505 0.548822 0.996518 1.80335 -3.35484 -0.434515 0.141125 0.160397 
211 1 0.247631 0.496235 0.0513611 0.792244 -3.32472 0.494111 0.303936 -0.139941 
210 1 0.249587 0.547856 0.00281903 0.935733 -3.29561 -0.316283 0.116192 -0.0900464 
213 1 0.297603 0.499438 -0.00164654 0.430399 -3.25123 0.0865787 0.419527 0.26011 
613 1 0.301803 0.497111 0.105415 1.17406 -3.3084 0.1947 0.310138 -0.636567 
216 1 0.298951 0.546632 0.0529368 0.468402 -3.35101 0.0841695 0.149126 -0.153332 
215 1 0.349909 0.499969 0.0489333 0.275637 -3.30196 0.097332 0.373887 0.144654 
614 1 0.353998 0.549059 0.101215 0.552872 -3.33498 -0.215651 -0.161073 -0.0182597 
220 1 0.399777 0.550253 0.0495091 0.209219 -3.31114 0.00484978 -0.339829 -0.00583024 
259 1 0.449524 0.59777 0.0480562 0.634088 -3.28344 0.0458926 0.604951 0.334978 
617 1 0.40248 0.500843 0.100309 0.410815 -3.29045 -0.0414769 0.518693 -0.105922 
618 1 0.449351 0.553181 0.101682 0.470448 -3.34069 -0.130035 -0.137417 -0.12257 
218 1 0.449247 0.555705 0.00105349 1.67325 -3.26855 -0.1085 -0.993147 -0.60084 
224 1 0.499008 0.547982 0.0495731 0.785457 -3.27406 -0.0821159 0.647997 0.0317346 
622 1 0.547432 0.550972 0.0992668 0.284675 -3.31239 -0.263194 0.149692 -0.0788384 
222 1 0.555412 0.551973 -0.00213102 1.54913 -3.17205 -0.98251 -0.727732 0.600364 
228 1 0.603252 0.548132 0.0505404 1.40544 -3.25434 -0.726931 0.411734 0.00650507 
263 1 0.552022 0.599046 0.0500854 0.6334 -3.35083 -0.33864 -0.159639 -0.0115063 
665 1 0.600201 0.600003 0.100212 0.543575 -3.23675 0.197596 -0.21063 -0.0954662 
261 1 0.501938 0.598499 1.00065 0.78348 -3.30212 0.059915 0.229076 -0.169505 
229 1 0.700725 0.501649 0.00237414 0.647225 -3.32501 -0.430684 -0.0692241 -0.325337 
232 1 0.697042 0.550217 0.0463219 1.11025 -3.25263 0.232778 0.104587 0.300183 
269 1 0.700272 0.600732 -0.00229605 0.358877 -3.31948 -0.101054 -0.143451 0.0746958 
630 1 0.74846 0.549402 0.0964795 1.11123 -3.32095 0.128953 0.448222 0.442233 
626 1 0.651906 0.553818 0.0962678 1.46937 -3.31687 0.0979753 -0.380844 0.694826 
669 1 0.697331 0.60483 0.10074 1.90912 -3.26767 0.733758 -0.575765 -0.423749 
235 1 0.849733 0.501655 0.0516947 0.705292 -3.31143 0.714787 -0.472916 -0.0690553 
236 1 0.803191 0.549794 0.0484237 0.727537 -3.21199 -0.366219 0.235707 0.681281 
271 1 0.751252 0.594232 0.0499322 2.33126 -3.2963 -0.210125 0.647986 -0.0333422 
634 1 0.855378 0.549051 0.102437 0.633068 -3.27889 -0.674815 0.0798959 -0.197155 
204 1 0.997915 0.549134 0.0519799 0.765778 -3.32068 0.568775 0.189925 0.0312382 
201 1 0.00178581 0.498734 0.998215 0.721269 -3.26261 -0.0543707 0.263955 0.644171 
240 1 0.901088 0.551693 0.0508969 0.639631 -3.28258 -0.168501 -0.795307 -0.14865 
277 1 0.897818 0.597422 1.00142 0.574986 -3.29364 0.192403 0.358188 -0.0646505 
243 1 0.0517526 0.595098 0.0545297 1.78193 -3.26344 -0.00976142 0.181579 -0.67717 
248 1 0.100312 0.652147 0.0461653 1.49255 -3.2753 0.137521 -0.135034 0.594714 
242 1 0.0517716 0.645811 1.00031 1.2476 -3.23161 -0.574896 0.401799 -0.165747 
283 1 0.0469717 0.70053 0.0500303 0.755031 -3.24843 0.6171 -0.0939565 0.59322 
249 1 0.200958 0.601108 0.997688 0.547682 -3.31532 0.184089 -0.0471909 0.242516 
252 1 0.198937 0.652113 0.0487771 0.672636 -3.29241 -0.025275 0.0405141 0.226665 
287 1 0.148467 0.705536 0.050514 1.03051 -3.29843 0.00525713 -0.466762 -0.418861 
646 1 0.145377 0.650926 0.0990125 1.07316 -3.32459 0.132749 -0.332595 -0.119541 
246 1 0.152607 0.654227 3.86604e-05 0.489938 -3.24152 -0.461363 -0.0570797 0.0550152 
251 1 0.249823 0.602217 0.0525709 1.22364 -3.29188 -0.290971 -0.646388 -0.363944 
653 1 0.302028 0.596125 0.101483 0.292025 -3.34183 -0.15916 0.0787036 -0.159793 
255 1 0.350514 0.597299 0.0493585 0.317036 -3.26609 -0.407456 -0.0832676 -0.0886318 
256 1 0.302602 0.646042 0.05183 0.906127 -3.29651 -0.0584901 0.408755 -0.188939 
295 1 0.348416 0.698379 0.0457295 0.601747 -3.30201 -0.146337 0.273782 0.556824 
291 1 0.250692 0.697462 0.0556034 2.48984 -3.26407 0.0199845 -0.0631807 -0.832236 
650 1 0.249707 0.646001 0.0989067 0.82052 -3.25462 0.12003 0.32994 -0.0598111 
657 1 0.399596 0.602092 0.0977888 0.710355 -3.29679 0.0759052 -0.112437 0.151707 
260 1 0.395357 0.647316 0.0463475 0.786497 -3.3376 0.265405 0.173697 0.266105 
299 1 0.448944 0.697181 0.0503167 0.600794 -3.27598 -0.210673 0.0630517 -0.306915 
661 1 0.499362 0.602563 0.0989891 0.491557 -3.3033 -0.0213359 -0.219849 -0.355645 
257 1 0.39668 0.5988 0.996776 0.396511 -3.27369 -0.137601 0.137189 0.179879 
258 1 0.447509 0.64741 0.000715544 0.502932 -3.35428 0.17265 0.188342 -0.224701 
264 1 0.499899 0.65095 0.0482532 0.446891 -3.35477 0.161846 -0.411669 0.0621191 
268 1 0.598024 0.649286 0.0438159 1.13519 -3.28682 0.149226 0.0577812 0.405392 
303 1 0.55132 0.69724 0.0451497 0.59135 -3.28456 -0.259761 0.116192 0.391668 
301 1 0.497122 0.699737 -0.0013999 0.363489 -3.31661 -0.035372 -0.19827 -0.12608 
267 1 0.646669 0.601008 0.0478968 0.572206 -3.30792 0.296528 -0.021905 -0.159605 
272 1 0.702074 0.646752 0.0446804 1.28414 -3.29452 -0.0542102 -0.484441 0.262126 
307 1 0.655466 0.69655 0.0463631 1.68813 -3.27997 -0.816992 -0.253282 0.396081 
666 1 0.649506 0.649215 0.0943496 1.1639 -3.30658 -0.41252 0.444362 0.374332 
275 1 0.851849 0.600284 0.0535992 0.849641 -3.30265 -0.157974 -0.120577 -0.0414879 
670 1 0.750797 0.650739 0.098183 0.834037 -3.31499 -0.252317 -0.446712 -0.0826317 
276 1 0.799558 0.645412 0.0436292 2.5426 -3.27576 -0.151648 0.784407 0.868726 
274 1 0.849594 0.650681 -0.00396507 0.833238 -3.31702 0.162216 0.396597 -0.0129667 
315 1 0.848325 0.697652 0.052963 0.815639 -3.28486 -0.0828982 -0.480111 -0.287849 
674 1 0.850148 0.649254 0.101859 0.583452 -3.28182 -0.195213 -0.114948 -0.747649 
673 1 0.799146 0.59971 0.10082 0.609623 -3.33473 -0.135733 -0.290338 -0.24684 
279 1 0.948089 0.597782 0.0513471 0.478329 -3.27562 0.502541 0.471073 0.0644182 
241 1 0.995776 0.601533 -0.0012794 1.36348 -3.3356 0.437594 -0.100933 0.268985 
244 1 0.0058746 0.645714 0.0528 1.62038 -3.29935 -0.417885 0.0629564 -0.352928 
280 1 0.897618 0.650256 0.0492151 0.812009 -3.25325 -0.324825 -0.229945 0.238799 
278 1 0.944415 0.648254 0.00213789 1.60724 -3.25904 0.650498 0.0288251 -0.192037 
288 1 0.0968498 0.751653 0.0481507 0.61743 -3.27426 -0.0105844 -0.252775 0.106253 
284 1 1.00051 0.74968 0.0509451 0.489694 -3.32272 -0.177897 0.154388 -0.360843 
681 1 1.00267 0.697772 0.105976 1.49494 -3.23906 -0.302918 -0.139745 -0.759672 
682 1 0.0461472 0.750617 0.101612 1.00686 -3.30973 0.497889 0.0590609 -0.0409617 
292 1 0.203562 0.751478 0.0515817 1.54887 -3.33817 -0.0838055 0.208009 -0.561892 
327 1 0.144135 0.803806 0.051347 2.54804 -3.25475 0.336989 -0.538261 -0.554221 
286 1 0.151836 0.748304 0.000292834 0.829504 -3.35004 -0.0198889 0.319863 0.104535 
329 1 0.198973 0.802023 1.00099 0.507514 -3.30538 -0.0236797 -0.465731 0.28163 
729 1 0.198003 0.797844 0.0954661 2.62875 -3.32087 0.468512 0.282646 0.655367 
293 1 0.299497 0.69969 -0.000327404 0.497897 -3.30956 -0.413649 0.238487 0.104573 
296 1 0.29593 0.754416 0.0486081 1.33397 -3.30538 0.29204 -0.302619 -0.345828 
693 1 0.301217 0.698778 0.0996598 0.451957 -3.20088 0.559415 -0.417341 -0.123641 
335 1 0.35072 0.801462 0.0480972 0.284807 -3.23303 -0.25872 -0.326822 -0.269197 
694 1 0.346514 0.75071 0.0958383 0.759963 -3.32504 0.31189 -0.447263 -0.0081073 
290 1 0.251516 0.752914 0.99764 0.882499 -3.24748 8.3626e-05 0.106007 0.482438 
294 1 0.345473 0.752289 -0.00192671 0.985607 -3.32873 0.0590327 0.0348924 0.300988 
300 1 0.401618 0.745609 0.0427479 2.36961 -3.30872 -0.440248 0.515995 0.883713 
698 1 0.45123 0.746525 0.100424 0.661114 -3.32448 -0.147104 0.211006 -0.546669 
737 1 0.39761 0.794851 0.0944286 1.74867 -3.24058 0.573506 -0.11723 0.431284 
701 1 0.499839 0.698226 0.0986426 0.32586 -3.34403 0.567083 0.00366049 0.112834 
339 1 0.452937 0.797368 0.0518224 1.32518 -3.32114 -0.0247958 -0.141987 -0.360121 
304 1 0.500657 0.745939 0.0457453 0.832788 -3.28472 -0.240496 0.109698 0.407406 
308 1 0.602526 0.746161 0.0486485 0.847353 -3.18778 -0.580896 -0.284961 -0.588441 
345 1 0.595625 0.802912 -0.00179522 1.18509 -3.30722 0.149148 -0.258394 0.0635558 
312 1 0.697545 0.745101 0.0515732 1.02844 -3.24723 0.2238 0.735686 -0.0885343 
710 1 0.747322 0.75153 0.100467 0.647459 -3.28474 0.15904 -0.48727 -0.156644 
709 1 0.698144 0.698588 0.101175 0.605143 -3.24428 0.284285 0.108963 -0.322872 
706 1 0.645335 0.747577 0.0969756 0.921574 -3.23184 0.406858 0.00216326 0.605028 
311 1 0.74457 0.69564 0.0483444 1.3006 -3.29179 0.68677 0.25442 0.21198 
713 1 0.79552 0.698724 0.102144 1.26433 -3.30659 0.426422 0.301445 -0.412489 
351 1 0.751074 0.795312 0.0477738 0.920094 -3.32894 -0.233261 -0.0414535 0.132861 
316 1 0.804918 0.747681 0.0512021 1.57042 -3.33727 -0.50684 0.1347 0.134663 
355 1 0.852342 0.800379 0.0511722 1.12054 -3.36335 0.0316336 -0.0636221 -0.231728 
314 1 0.850518 0.748353 -0.00111494 0.602387 -3.29085 -0.135388 0.29341 0.0484578 
319 1 0.949339 0.694488 0.049332 0.993051 -3.28932 0.397836 0.552186 0.231353 
320 1 0.896012 0.744831 0.0517905 1.18195 -3.28617 0.668729 0.300457 -0.30977 
357 1 0.896966 0.799206 0.996022 1.16178 -3.30645 -0.0037556 0.118475 0.376998 
359 1 0.94542 0.796601 0.0477785 1.59271 -3.35343 0.0919987 -0.0629259 0.0581549 
718 1 0.95384 0.747135 0.100613 0.687417 -3.33778 -0.154702 0.0980047 0.115611 
323 1 0.0550649 0.802096 0.0461972 1.39944 -3.32466 -0.0999761 0.0192693 0.28464 
321 1 0.00396607 0.795618 0.997414 1.45749 -3.28949 -0.618086 0.365115 0.262262 
328 1 0.104461 0.853743 0.0435764 2.53468 -3.23594 -0.378111 -0.0567217 0.719995 
363 1 0.0506104 0.899061 0.0437998 0.967771 -3.24812 -0.600945 -0.227575 0.815435 
765 1 0.0970505 0.898603 0.10077 0.807247 -3.25465 1.16372 -0.255978 -0.613454 
332 1 0.19748 0.849222 0.0516715 1.04482 -3.21624 -0.459312 -0.058533 -0.113748 
326 1 0.151785 0.850306 0.995308 1.13409 -3.27773 -0.453846 0.0794798 0.260626 
769 1 0.197622 0.897664 0.107516 2.0435 -3.30929 -0.199943 0.249309 -0.633677 
330 1 0.249063 0.848597 0.999631 0.893076 -3.2319 0.134474 0.812638 0.00820087 
331 1 0.25133 0.80889 0.0503102 2.94609 -3.20728 -0.0982373 -0.831413 0.249864 
336 1 0.304144 0.854061 0.048179 0.997513 -3.321 -0.0512269 0.199719 0.113817 
734 1 0.357025 0.849361 0.0968799 1.04226 -3.21571 -0.664352 0.287181 0.231462 
334 1 0.351296 0.851528 0.995899 0.629221 -3.30894 0.318807 0.175825 0.471374 
371 1 0.243622 0.896182 0.0545599 3.25803 -3.28527 0.710533 0.362192 -0.518548 
373 1 0.300475 0.902989 -0.000837757 0.614676 -3.35762 -0.115935 -0.112555 0.164649 
375 1 0.352824 0.904243 0.046379 0.876334 -3.33579 0.272925 -0.351063 0.0187032 
773 1 0.303994 0.90214 0.0951085 1.17582 -3.33424 -0.151796 -0.324024 0.423721 
340 1 0.401941 0.846818 0.0508642 1.22596 -3.2722 0.458503 0.724011 -0.716661 
337 1 0.401333 0.803961 0.00115853 1.63082 -3.31483 0.147028 -0.614905 -0.391635 
738 1 0.447705 0.848864 0.102318 0.992571 -3.28461 0.0958808 -0.195612 -0.101985 
781 1 0.500152 0.898186 0.0954893 1.68531 -3.21837 -0.768818 0.371051 0.649121 
381 1 0.4981 0.902826 -0.00131113 0.787486 -3.31305 0.263407 -0.0364622 0.368794 
343 1 0.543357 0.798643 0.0445426 1.9167 -3.31927 0.478586 0.141271 0.419672 
344 1 0.49523 0.851839 0.0517436 1.36128 -3.2912 -0.0383429 -0.0757977 -0.729141 
348 1 0.599948 0.850636 0.0498856 0.578643 -3.34406 -0.0627415 -0.135713 -0.221562 
785 1 0.600288 0.901326 0.0988292 0.394718 -3.27333 -0.0897044 -0.37416 0.392607 
383 1 0.550154 0.901476 0.0530197 0.987253 -3.28185 0.292938 -0.150441 -1.11212 
742 1 0.54589 0.84771 0.0968668 1.06219 -3.23197 0.911588 0.321812 0.335151 
347 1 0.645696 0.795749 0.0454802 1.18551 -3.24967 0.600707 0.613916 0.0532509 
352 1 0.699378 0.846148 0.0480829 0.513936 -3.30835 -0.536932 -0.249027 0.369061 
750 1 0.750511 0.848292 0.0968385 0.60039 -3.32141 0.0154911 -0.287282 0.230195 
356 1 0.79621 0.845532 0.0433842 2.28544 -3.26263 0.373294 0.425808 0.679178 
354 1 0.852366 0.852185 -0.00252468 1.14188 -3.24034 -0.186702 -0.3809 0.852743 
391 1 0.744999 0.895286 0.0488598 0.911116 -3.30312 0.478226 0.473157 0.093233 
324 1 -0.00158159 0.843217 0.0463919 1.62899 -3.3072 0.145869 0.520969 0.10709 
360 1 0.905285 0.853629 0.0478965 3.0426 -3.31122 -0.696902 -0.538756 -0.253553 
397 1 0.904098 0.899033 -0.00127178 1.10991 -3.30584 -0.358146 -0.434747 0.0491325 
721 1 0.00232592 0.803062 0.0989018 0.954823 -3.27346 -0.113668 -0.623234 0.157332 
797 1 0.899352 0.8933 0.100696 1.49533 -3.25606 0.266489 0.291453 -0.528784 
368 1 0.0988765 0.948897 0.0482623 0.532396 -3.33515 0.434109 0.151507 -0.100142 
7 1 0.15226 -0.00186911 0.0476463 0.588318 -3.3141 -0.0900113 0.0231868 0.0610807 
409 1 0.200977 0.997042 0.0983748 0.673398 -3.26161 0.0775618 0.579739 -0.143549 
367 1 0.155114 0.900148 0.0480566 1.2487 -3.32099 -0.302837 0.27481 0.465794 
372 1 0.2036 0.948114 0.0533227 1.02551 -3.25509 -0.390539 0.174453 -0.140958 
766 1 0.15053 0.951413 0.103021 0.913694 -3.30743 -0.16612 -0.861006 -0.472721 
366 1 0.154679 0.946327 0.998559 1.14383 -3.32839 -0.513613 0.465102 0.403242 
13 1 0.298827 0.000511567 -0.00158715 0.236427 -3.30014 0.120098 -0.0462634 0.062605 
15 1 0.349771 0.0039133 0.0478741 0.612871 -3.33708 -0.288612 -0.103267 0.369479 
376 1 0.297839 0.951336 0.0523194 0.750397 -3.32664 -0.0353887 -0.0179239 -0.338423 
770 1 0.248954 0.949056 0.103299 0.827625 -3.22476 0.271918 -0.0520473 -0.599066 
370 1 0.247266 0.950502 0.00129915 0.893611 -3.28091 0.612801 -0.573775 -0.287462 
374 1 0.350813 0.954382 0.000757006 0.821737 -3.32077 0.0206814 -0.36383 -0.211051 
774 1 0.350718 0.952768 0.0978058 0.362676 -3.25325 -0.194111 -0.259715 0.204964 