ITEM: TIMESTEP
14250
ITEM: NUMBER OF ATOMS
4000
ITEM: BOX BOUNDS pp pp pp
2.8212482769661804e+00 3.7678751723033244e+01
-3.1840385595008045e+00 4.3684038559500053e+01
-4.0755930752336872e-01 4.0907559307523769e+01
ITEM: ATOMS id type xs ys zs c_csym c_peratom fx fy fz 
405 1 0.0351811 0.0650561 0.098477 3.52355 -3.23055 0.969991 -0.804999 0.0200999 
7 1 0.101289 0.0519053 0.0543347 0.644411 -3.29113 -0.275273 0.252918 0.0543978 
3 1 0.0353856 0.015277 0.0524129 6.78063 -3.26336 -0.187399 0.279743 0.350506 
2 1 0.0437879 0.0587974 0.00814877 7.31312 -3.35104 -0.0762677 0.147551 -0.59155 
5 1 0.088766 0.00519263 0.00654885 5.93923 -3.25282 0.639406 0.333007 -0.111485 
12 1 0.161174 0.0915864 0.0530183 0.649994 -3.27739 0.413899 -0.155161 0.190306 
11 1 0.21335 0.0395448 0.0506567 0.381956 -3.35422 0.432927 0.0110138 0.0911889 
10 1 0.219453 0.0828594 0.00225761 0.488653 -3.37993 0.0547964 -0.202284 0.262449 
9 1 0.153712 0.0423828 0.00661942 1.0602 -3.2722 0.0959298 0.780252 -0.754024 
409 1 0.158018 0.048829 0.101794 0.42652 -3.32114 -0.107773 -0.313376 0.0210956 
410 1 0.218481 0.0838241 0.0972893 1.36593 -3.30604 0.729268 -0.304153 0.494469 
16 1 0.283329 0.0725445 0.051006 0.824633 -3.33576 -0.725659 0.0832877 0.138288 
15 1 0.331223 0.0260608 0.0482003 1.24261 -3.27813 -0.487111 -0.644267 0.585799 
413 1 0.272449 0.0312756 0.101982 0.424428 -3.30444 -0.0424694 0.00234399 -0.560253 
14 1 0.334966 0.0664751 1.00102 0.384189 -3.27182 -0.0352345 -0.124444 -0.586868 
20 1 0.393159 0.0608492 0.0501685 0.440274 -3.31481 0.0477075 -0.0678359 0.264071 
19 1 0.440876 0.0112298 0.047836 0.541002 -3.35015 0.436298 -0.145526 0.332481 
418 1 0.453786 0.0528393 0.0953508 0.88014 -3.35377 -0.329056 0.00831143 0.218171 
21 1 0.498543 0.00313259 1.95965e-05 0.296271 -3.38217 -0.0436892 -0.181788 -0.0879889 
17 1 0.384304 0.0174789 1.00186 0.396665 -3.31885 -0.0205904 -0.443015 -0.444467 
18 1 0.446557 0.0516344 0.997138 0.441606 -3.27403 0.271345 0.0183598 0.284223 
24 1 0.508103 0.047912 0.0466438 0.518593 -3.3598 0.0405464 -0.238909 0.128428 
28 1 0.624714 0.0332404 0.0478568 0.821378 -3.25988 -0.738473 0.331623 1.24229 
63 1 0.571383 0.087513 0.0493263 1.05509 -3.3033 0.328609 -0.530209 -0.153454 
61 1 0.513931 0.0906552 0.998148 0.375568 -3.29993 -0.350851 0.131835 0.310691 
421 1 0.503318 0.00314793 0.100451 0.815641 -3.26841 -0.470168 0.193934 -0.388793 
22 1 0.567299 0.0408958 0.00229958 1.03116 -3.33805 -0.495584 0.114222 -0.265125 
32 1 0.741213 0.0214259 0.0552091 1.92861 -3.32316 -0.0291662 -0.33875 -0.312692 
67 1 0.69162 0.0702734 0.0485033 0.759798 -3.27657 -0.528257 0.138764 0.147494 
469 1 0.742488 0.0665904 0.0978818 0.968793 -3.26274 0.439544 -0.399514 0.68243 
426 1 0.682028 0.0261478 0.0983915 0.553731 -3.33652 -0.607258 0.322898 0.141385 
465 1 0.633084 0.0772974 0.0962331 0.580794 -3.3804 0.00156075 -0.1164 0.0650082 
65 1 0.632381 0.0759858 0.00320156 1.19861 -3.2756 -0.367143 0.263056 -0.216126 
36 1 0.797811 0.0612048 0.0481706 0.733022 -3.33146 0.337988 -0.21568 -0.0522002 
35 1 0.850288 0.00810045 0.0513357 0.950531 -3.36185 -0.353283 0.00990576 -0.409785 
434 1 0.854573 0.0578063 0.0970067 6.40486 -3.29088 -0.200629 -0.190635 0.453069 
430 1 0.800758 0.0158178 0.106012 3.90596 -3.2614 -0.263954 0.144004 -0.989158 
34 1 0.851022 0.0508186 0.99511 0.43796 -3.29294 0.104935 -0.220172 0.29465 
4 1 0.982744 0.0683466 0.0483547 2.50314 -3.28053 0.230439 -0.186087 0.206958 
40 1 0.909867 0.0469517 0.0422302 6.52353 -3.24477 0.316856 -0.887858 0.241321 
401 1 0.975431 0.0268129 0.0994163 2.12847 -3.3103 -0.0647462 -0.0933238 -0.259014 
37 1 0.903482 -0.000158624 0.995634 0.355385 -3.3519 -0.0528162 0.107506 0.188773 
6 1 0.110275 0.0967113 0.00725448 0.94323 -3.23964 -0.891051 -0.645886 -0.652057 
8 1 0.0566446 0.103088 0.0540343 1.7808 -3.28316 -0.627049 0.155683 -0.0196479 
43 1 0.998803 0.150733 0.0535961 0.778946 -3.27302 0.705962 0.382658 -0.0878691 
45 1 0.0599893 0.146658 0.00912607 1.58282 -3.30473 -0.565325 -0.400836 -0.791322 
47 1 0.115653 0.140704 0.054629 0.369792 -3.23021 -0.275975 -0.314137 0.373612 
406 1 0.105982 0.0976191 0.105881 0.834117 -3.35122 0.186829 -0.0165087 -0.541667 
446 1 0.116241 0.185429 0.102655 1.2403 -3.31637 0.601165 -0.368126 0.208556 
52 1 0.174938 0.171804 0.0504254 0.948965 -3.27624 0.80089 0.518844 0.108334 
51 1 0.231306 0.124427 0.0532894 0.643133 -3.32574 -0.0723719 0.0746202 -0.655069 
449 1 0.175536 0.134431 0.101788 1.22553 -3.31548 -0.81936 -0.0241442 0.138827 
55 1 0.344483 0.108744 0.0481571 0.358718 -3.28615 0.0931987 0.14701 0.515188 
56 1 0.296335 0.156998 0.053262 1.08325 -3.31254 -0.265958 0.430996 -0.52238 
453 1 0.288394 0.116821 0.101647 0.407165 -3.33774 0.0299742 0.0079508 -0.122184 
53 1 0.289536 0.114569 1.00105 0.696226 -3.32685 -0.634629 0.229562 -0.0569492 
59 1 0.456679 0.0945622 0.044405 0.863408 -3.29099 0.107831 0.164603 0.289601 
60 1 0.407792 0.1434 0.0505728 0.780782 -3.29967 -0.0969009 0.23287 -0.306695 
57 1 0.39852 0.0988874 0.997244 0.684433 -3.34502 0.0908153 0.553537 -0.0820999 
58 1 0.459577 0.141459 0.000803965 1.02223 -3.36275 0.425496 -0.292175 -0.439539 
99 1 0.471591 0.18145 0.0527169 1.59392 -3.21611 -0.947926 0.313607 -0.597319 
458 1 0.464209 0.135666 0.095955 1.2743 -3.32082 0.219258 0.365676 0.431467 
64 1 0.518434 0.13502 0.0475245 0.660369 -3.32064 0.394523 -0.354892 -0.00534898 
103 1 0.58498 0.169383 0.0532522 1.04113 -3.34821 0.230837 0.0849137 -0.132926 
101 1 0.526572 0.181464 0.00408845 1.17813 -3.2788 -0.210966 -0.818542 -0.700741 
62 1 0.579306 0.127967 0.000968559 0.708864 -3.32468 -0.434251 0.240102 0.0372544 
68 1 0.638511 0.122624 0.0483188 0.472909 -3.31534 -0.206043 -0.21825 0.456186 
72 1 0.699832 0.159435 0.0498733 0.515408 -3.29392 -0.208096 -0.0657056 -0.140943 
69 1 0.689761 0.116882 0.000525618 1.10133 -3.36105 0.443975 -0.371232 -0.435092 
75 1 0.866667 0.0924276 0.0425228 2.68244 -3.23116 -0.9013 0.745164 0.249045 
473 1 0.802882 0.106483 0.0994681 3.19027 -3.29608 0.301648 -0.187169 0.112217 
71 1 0.749012 0.108709 0.0503478 0.753664 -3.22337 0.0929868 0.1555 -0.773132 
76 1 0.812429 0.139498 0.0427918 2.48173 -3.2771 0.161213 0.163041 0.302311 
73 1 0.800478 0.101168 0.992764 1.06976 -3.27579 0.477938 -0.438397 0.451313 
79 1 0.936653 0.115001 0.0494842 5.82478 -3.23831 -0.427764 0.216343 0.337928 
80 1 0.87959 0.165979 0.0464048 3.26055 -3.2798 0.334435 -0.454725 0.827851 
48 1 0.0642534 0.188164 0.0527553 0.463409 -3.29086 -0.290639 0.357333 0.235731 
42 1 0.00967923 0.19756 0.00310375 1.25807 -3.33542 -0.166465 -0.38751 -0.106451 
83 1 0.0175251 0.237265 0.0533367 0.755766 -3.34256 -0.372884 0.180916 -0.0597925 
485 1 0.0725008 0.233433 0.101726 0.315581 -3.33845 -0.120732 -0.129484 0.142178 
85 1 0.0717029 0.232917 0.997342 1.09287 -3.30418 0.0469827 -0.554643 0.026498 
87 1 0.127671 0.224323 0.0498573 0.281892 -3.32366 -0.0270351 0.066704 -0.0068512 
91 1 0.236026 0.208108 0.053651 1.88552 -3.31852 0.667404 0.0759235 -0.471516 
92 1 0.189022 0.259363 0.0465033 1.15743 -3.27097 0.337752 -0.291262 0.559787 
86 1 0.136754 0.26685 0.995411 0.771326 -3.28206 -0.434642 -0.365225 0.0694247 
489 1 0.182162 0.217023 0.0997031 0.854044 -3.32016 0.163803 0.141156 0.305492 
89 1 0.186905 0.215386 0.998945 0.633338 -3.33091 -0.227546 0.204888 0.151971 
95 1 0.361397 0.192208 0.0463946 1.92955 -3.35878 -0.255282 0.644906 0.112181 
96 1 0.304075 0.245733 0.0528578 1.0567 -3.30323 0.195154 -0.0994728 -0.511406 
93 1 0.298136 0.198995 0.00163104 0.678899 -3.36592 -0.0218004 0.155953 0.179175 
493 1 0.300489 0.205681 0.0988658 0.641536 -3.29246 -0.0668166 -0.399134 -0.130128 
94 1 0.362427 0.24031 0.00130741 0.761028 -3.26008 0.0306194 -0.688892 0.0526012 
100 1 0.420367 0.235184 0.0486126 0.567209 -3.32431 0.23517 -0.600992 0.185414 
139 1 0.484218 0.273049 0.0479264 0.521106 -3.34104 -0.256745 -0.578145 0.291434 
497 1 0.417334 0.190881 0.0995755 0.667313 -3.33262 -0.183187 -0.13236 -0.31949 
97 1 0.415361 0.18807 0.995719 1.30407 -3.31488 -0.551106 -0.0358653 0.339534 
98 1 0.469011 0.22754 0.998322 1.81038 -3.30827 0.645919 0.112753 0.128369 
104 1 0.526664 0.220698 0.0478508 2.62104 -3.23063 0.512609 1.06143 0.528264 
108 1 0.601745 0.260707 0.0522452 1.13448 -3.35324 -0.398826 0.0698013 -0.0487525 
502 1 0.593994 0.214799 0.0977831 0.864091 -3.31548 -0.493276 -0.0280838 0.0538636 
102 1 0.541087 0.267127 0.000964067 1.08675 -3.28169 -0.0907856 -0.954074 0.706788 
105 1 0.589034 0.216929 0.0090375 2.6505 -3.32137 0.145212 -0.131143 -0.509477 
107 1 0.649272 0.210263 0.0528291 0.801643 -3.33328 0.135098 -0.289078 -0.0986188 
509 1 0.706775 0.20994 0.101963 7.88308 -3.28358 0.0909892 -0.632258 0.0430801 
112 1 0.715113 0.243537 0.0464896 5.82735 -3.33147 0.0970874 -0.0865574 0.172832 
506 1 0.654327 0.252521 0.107458 2.90282 -3.16388 0.0712146 -0.471541 -0.722033 
115 1 0.840672 0.218935 0.0543633 2.29145 -3.2507 -0.466856 -0.503693 -0.0424906 
111 1 0.763799 0.191232 0.0477818 1.73928 -3.32747 0.292116 0.517159 -0.108426 
116 1 0.790212 0.262973 0.0586048 7.69638 -3.21946 -0.54968 0.647442 -0.634513 
114 1 0.845754 0.258563 0.00578359 6.02203 -3.30405 -0.208759 -0.0937549 -0.058358 
517 1 0.845232 0.25761 0.102922 0.433098 -3.24409 0.485609 0.513184 0.336509 
44 1 0.953423 0.201616 0.0524645 0.998285 -3.31036 -0.437501 0.231556 -0.266305 
81 1 0.955088 0.245114 0.0054475 0.433981 -3.34148 0.133512 -0.0277382 -0.0641263 
119 1 0.904582 0.253353 0.0581146 0.864697 -3.29246 -0.196135 -0.0174299 -0.450464 
117 1 0.891679 0.207762 0.00750332 6.30594 -3.23532 0.449574 0.558267 -0.495909 
478 1 0.897685 0.209487 0.101609 0.770787 -3.29045 -0.0462957 -0.234417 -0.133123 
481 1 0.957385 0.248298 0.10775 1.55816 -3.19733 0.576761 -0.592274 -0.75636 
88 1 0.0792923 0.272102 0.0462195 0.696434 -3.29722 -0.17206 0.130106 0.562723 
123 1 0.0304858 0.323893 0.0486234 0.351025 -3.34409 0.0146438 -0.486798 -0.00711312 
128 1 0.0914952 0.359837 0.0437599 1.548 -3.29122 -0.158378 -0.129681 0.414105 
482 1 0.0227297 0.278802 0.102317 0.779813 -3.36103 0.239037 0.544111 -0.128753 
525 1 0.0846975 0.319425 0.0999189 1.14157 -3.26914 -0.0863675 -0.816628 -0.249464 
82 1 0.0212353 0.276935 0.997745 0.851217 -3.31819 -0.0475548 0.494159 0.310815 
129 1 0.197771 0.29839 0.00243668 1.33956 -3.26663 0.515789 0.908774 -0.648446 
127 1 0.137139 0.308214 0.0478549 1.11273 -3.29957 0.461203 0.133329 0.297006 
132 1 0.206543 0.344568 0.0499984 0.632778 -3.34182 -0.22112 0.201771 -0.0721819 
526 1 0.14877 0.349035 0.0972124 1.02126 -3.26787 0.49336 0.307243 0.000276785 
126 1 0.147435 0.349225 0.00108835 0.820989 -3.33812 0.451155 0.309917 -0.337954 
131 1 0.255023 0.295141 0.0488478 0.424596 -3.35179 0.298616 -0.0201205 -0.103089 
136 1 0.316248 0.33374 0.050108 0.398805 -3.34792 0.0648132 -0.241715 0.0840582 
533 1 0.315719 0.292226 0.0972628 0.885526 -3.33863 -0.116263 -0.243928 0.203339 
130 1 0.260549 0.339317 0.00191482 0.385651 -3.34147 -0.288641 -0.279156 -0.278607 
135 1 0.370304 0.279923 0.0508122 1.03844 -3.28559 -0.111148 0.806102 -0.0824626 
140 1 0.431846 0.32025 0.0518429 0.357485 -3.35962 0.140504 0.0706885 -0.317611 
538 1 0.494375 0.312404 0.0987721 0.986465 -3.30035 -0.718243 0.086772 0.476407 
577 1 0.441923 0.363234 0.0983865 0.498366 -3.33331 0.329155 0.179163 0.0646976 
144 1 0.500897 0.355214 0.0512878 0.843243 -3.29558 -0.844607 0.708738 -0.0342808 
534 1 0.379108 0.330296 0.0989196 1.07386 -3.2791 -0.457886 -0.676096 0.139268 
137 1 0.424005 0.277827 0.000751643 0.352186 -3.30986 -0.0892849 0.0517443 0.054956 
134 1 0.372143 0.325437 0.00181511 0.364678 -3.35294 0.36183 0.469216 0.2543 
141 1 0.489406 0.314209 0.000619966 0.401841 -3.34487 -0.110102 0.352324 -0.140274 
143 1 0.543246 0.309296 0.0498269 1.48851 -3.19183 1.00636 -0.55887 -0.0830026 
545 1 0.611212 0.29919 0.102785 1.53608 -3.28097 -0.602022 0.386055 0.154164 
148 1 0.611269 0.337777 0.0541253 1.4515 -3.31874 0.298914 0.0543433 -0.597604 
542 1 0.554234 0.349895 0.102581 0.579688 -3.30427 0.202564 -0.0370318 0.0104032 
147 1 0.667447 0.292315 0.0478646 1.42358 -3.28037 -0.765968 0.00738038 0.304104 
151 1 0.734544 0.312312 0.053349 6.33241 -3.25908 0.535041 0.274359 0.00237497 
152 1 0.684895 0.362047 0.0553444 6.31475 -3.2577 -0.0368713 0.87992 -0.57728 
150 1 0.740359 0.355191 0.00622253 2.87829 -3.27139 0.331021 0.0620442 -0.263686 
549 1 0.679035 0.331188 0.104545 1.76683 -3.10752 -0.678647 -1.19527 -0.0684508 
120 1 0.848066 0.301977 0.0572926 0.960694 -3.32397 0.534194 -0.0784322 -0.561434 
153 1 0.792851 0.30578 0.00589748 5.77319 -3.34687 -0.0750489 0.0519794 0.214449 
155 1 0.796234 0.348355 0.0551985 0.601415 -3.32171 0.379659 0.344764 -0.0860328 
157 1 0.85846 0.345655 0.00179272 1.3755 -3.31502 -0.505319 -0.351622 0.791951 
514 1 0.790888 0.309237 0.104389 0.472687 -3.20674 0.0180621 0.121429 -0.373279 
557 1 0.855544 0.340831 0.103476 0.938916 -3.33812 0.713745 0.612178 0.0288738 
84 1 0.965821 0.289052 0.054483 0.48486 -3.31299 0.531738 -0.303961 -0.273105 
159 1 0.916965 0.333953 0.0521994 0.823369 -3.32595 -0.564633 0.431459 0.0971982 
121 1 0.972687 0.32581 -0.000260281 1.32878 -3.32784 0.0150743 0.571065 0.240675 
518 1 0.915009 0.295041 0.104864 1.24169 -3.29758 -0.889271 0.270105 0.128822 
118 1 0.906788 0.292793 0.00472662 0.346622 -3.3012 -0.0349869 0.264645 -0.0523739 
122 1 0.0326827 0.367714 0.995922 1.16046 -3.35485 -0.292319 -0.228895 0.420385 
522 1 0.0391895 0.3649 0.0990202 0.47162 -3.31062 -0.265474 0.323284 0.16135 
163 1 0.0428088 0.407339 0.0507851 0.653428 -3.26223 0.0899089 -0.22799 -0.240049 
168 1 0.103062 0.443784 0.0543854 0.913141 -3.27066 0.755656 0.13024 -0.349311 
565 1 0.10474 0.39839 0.0990474 1.60895 -3.28865 -0.627224 0.406705 0.140422 
167 1 0.154422 0.394202 0.0498192 0.357563 -3.337 0.484405 -0.0661561 -0.0178226 
172 1 0.217838 0.432422 0.0476069 1.14183 -3.27179 -0.248306 -0.00400659 0.82234 
569 1 0.213121 0.386328 0.102532 0.758953 -3.36438 -0.214101 0.372664 -0.0340534 
566 1 0.164118 0.437575 0.103097 0.743111 -3.32843 0.00553814 -0.0821673 -0.393682 
171 1 0.262777 0.386032 0.0513431 1.55487 -3.31224 0.321245 -0.5162 0.0843251 
176 1 0.331126 0.418511 0.0541223 0.736111 -3.29363 -0.300891 0.33323 0.170967 
573 1 0.322728 0.375268 0.0995598 0.83436 -3.33201 -0.17756 0.294694 0.434433 
570 1 0.273147 0.429271 0.100307 0.628212 -3.38237 0.0836024 -0.213053 0.213275 
175 1 0.378597 0.371538 0.0543605 0.901971 -3.2619 0.310659 -0.275293 -0.716695 
179 1 0.445232 0.404406 0.0456622 1.74993 -3.30652 0.383383 0.539133 0.826623 
183 1 0.563712 0.39051 0.0519657 0.726822 -3.30052 -0.0655079 0.163499 -0.0320713 
184 1 0.520292 0.441155 0.0470355 2.42741 -3.31645 -1.08952 0.00529559 0.501192 
189 1 0.687451 0.404732 0.00512258 6.99111 -3.30882 0.26812 0.219662 0.73219 
187 1 0.632865 0.417756 0.0572486 2.093 -3.27151 0.670605 -0.117829 -0.647144 
191 1 0.69986 0.453902 0.0598131 1.47016 -3.33691 0.0685009 -0.369545 -0.534615 
186 1 0.641733 0.456072 0.00466928 6.33601 -3.33058 0.0865026 -0.114106 0.109182 
550 1 0.693719 0.408066 0.103225 0.68799 -3.32594 -0.317627 0.277169 -0.200635 
156 1 0.750934 0.399702 0.0533317 0.531959 -3.3008 -0.546851 0.0910938 0.278496 
154 1 0.803915 0.389433 0.00716002 1.00809 -3.29122 0.611329 0.42328 -0.202361 
160 1 0.866273 0.385478 0.0555837 0.535173 -3.33479 -0.394789 -0.269286 -0.15543 
195 1 0.813122 0.43715 0.0554623 0.604286 -3.3024 0.192162 -0.355538 -0.209256 
197 1 0.86986 0.426378 0.00724544 1.47194 -3.36816 -0.26719 0.322156 -0.581578 
124 1 0.978882 0.367965 0.0518615 1.68325 -3.32617 0.0471283 0.76146 -0.365796 
158 1 0.921191 0.379991 0.00421711 0.634313 -3.32134 0.155442 -0.0194276 0.0158438 
199 1 0.929319 0.423955 0.0500868 0.608362 -3.34905 0.251027 0.176465 0.0771573 
561 1 0.989672 0.416648 0.0945644 2.11291 -3.28909 -0.604569 -0.282932 0.597604 
203 1 0.0559067 0.496076 0.0542293 0.799401 -3.23886 -0.155592 -0.148163 -0.586688 
204 1 0.0140535 0.545921 0.047792 0.608173 -3.34032 -0.453042 -0.140252 0.048538 
201 1 0.00375342 0.500076 1.00057 0.888273 -3.31644 0.00060921 0.295667 -0.224893 
605 1 0.109973 0.490419 0.10045 0.620585 -3.26513 0.659483 0.175058 0.167302 
164 1 0.997456 0.458015 0.0487459 0.789733 -3.267 -0.722107 0.102774 0.376594 
602 1 0.0638623 0.540269 0.099842 0.402005 -3.32564 0.115329 0.215249 0.396298 
208 1 0.114826 0.530997 0.0505942 0.993762 -3.30773 0.733579 0.418144 -0.14865 
207 1 0.164764 0.480413 0.0540816 0.831396 -3.36613 0.165618 0.143053 -0.460782 
212 1 0.229945 0.521388 0.0506653 0.367761 -3.26333 0.101548 -0.15419 0.114594 
609 1 0.222816 0.477269 0.100763 0.330876 -3.29914 0.450365 -0.157547 -0.234318 
606 1 0.176727 0.525478 0.0979609 0.493098 -3.31384 -0.477566 0.299247 0.268148 
211 1 0.276107 0.47231 0.0506673 1.22007 -3.26826 0.610762 -0.35519 0.533074 
215 1 0.345188 0.505414 0.0549918 1.20333 -3.32732 0.0325674 0.450397 -0.640911 
613 1 0.341608 0.462789 0.0994081 0.526558 -3.3216 -0.345053 -0.0219892 0.491852 
213 1 0.284321 0.511817 0.00476805 0.975284 -3.29252 0.710718 0.362308 -0.672844 
180 1 0.39289 0.458497 0.0502648 0.9944 -3.28741 0.74446 -0.334481 0.07795 
578 1 0.455778 0.447084 0.0959325 1.10455 -3.39023 -0.0317126 0.0444823 -0.123152 
219 1 0.465351 0.493946 0.0488426 1.09149 -3.34614 -0.405039 -0.301019 0.0991312 
621 1 0.478922 0.531604 0.104028 1.08166 -3.2953 -0.212559 0.153774 0.1391 
188 1 0.587225 0.464946 0.0535053 3.29213 -3.19591 -0.0349679 0.887064 -0.212547 
582 1 0.521686 0.483425 0.101948 1.41289 -3.25835 0.329406 -0.791524 -0.0580279 
225 1 0.591249 0.506396 0.00417151 6.10555 -3.34993 0.108722 0.203384 0.16537 
223 1 0.533464 0.517805 0.0531923 1.24526 -3.23189 0.541238 0.00549701 -0.192074 
586 1 0.592911 0.510563 0.103823 0.407239 -3.35454 0.0135555 0.0528342 -0.174067 
192 1 0.649984 0.499852 0.0538033 0.42722 -3.31931 -0.10233 0.486512 0.0310676 
190 1 0.704387 0.493607 0.00436947 0.51134 -3.32381 0.45739 -0.449151 -0.00850061 
231 1 0.711819 0.536928 0.0491143 0.957656 -3.29938 -0.0710135 -0.051779 0.598052 
229 1 0.658288 0.541254 0.999336 0.554099 -3.30199 -0.722974 0.075202 0.156752 
629 1 0.655826 0.547094 0.105018 0.504972 -3.34328 -0.0694347 -0.0595739 -0.610799 
196 1 0.765474 0.485773 0.0555243 0.592207 -3.29574 -0.18529 0.107106 -0.528898 
194 1 0.818719 0.479245 0.0013187 0.668404 -3.33413 0.316826 -0.206741 0.599981 
235 1 0.83048 0.522194 0.0508673 0.343756 -3.33857 -0.090001 0.203468 -0.298103 
233 1 0.770085 0.530388 0.00334293 0.648175 -3.3363 0.412552 -0.285428 -0.22462 
200 1 0.87453 0.472249 0.0515931 1.42582 -3.27229 0.784599 -0.360442 -0.575432 
198 1 0.935139 0.466062 0.994216 1.91509 -3.2956 -0.0474086 -0.154973 0.872177 
239 1 0.94678 0.504265 0.0459036 1.36432 -3.34876 -0.0921997 0.273415 0.265576 
237 1 0.888183 0.513706 0.997669 0.693771 -3.31154 0.0284305 0.224523 0.60512 
243 1 0.074456 0.583568 0.0494383 0.38109 -3.36294 -0.0535285 0.130825 0.100648 
241 1 0.0210833 0.589981 0.995085 1.22475 -3.31756 -0.23456 -0.431155 0.258089 
244 1 0.0211817 0.633977 0.0459894 0.962292 -3.27673 0.211037 -0.510314 0.421659 
642 1 0.0778739 0.625729 0.100469 0.457441 -3.3612 0.203728 0.284062 -0.228332 
641 1 0.0152784 0.590222 0.0981564 0.474531 -3.29004 0.360739 -0.399729 -0.0336493 
247 1 0.181921 0.568541 0.0532074 1.24334 -3.33097 -0.114965 0.2222 -0.510746 
248 1 0.138978 0.622261 0.0516044 1.08703 -3.29723 -0.532317 -0.331992 -0.0669099 
645 1 0.128505 0.577203 0.10115 0.494901 -3.37713 -0.0706351 -0.206009 -0.110075 
649 1 0.242698 0.564228 0.096819 0.523726 -3.32641 0.0813468 0.333266 0.20711 
251 1 0.243989 0.605653 0.0418264 1.73356 -3.28746 0.47176 -0.0246101 0.525011 
216 1 0.295866 0.558481 0.0495997 0.500199 -3.33469 0.268139 -0.19481 -0.253216 
255 1 0.364485 0.591834 0.0441622 1.40328 -3.28903 -0.236754 0.442039 0.44634 
220 1 0.411466 0.543939 0.0487452 1.63947 -3.35876 0.237046 -0.455016 -0.182616 
259 1 0.431853 0.622722 0.0519807 2.12629 -3.22735 0.458616 -1.13264 0.321001 
224 1 0.487418 0.566875 0.0536133 2.46657 -3.29626 -0.529031 0.0479821 -0.130489 
261 1 0.496307 0.609469 0.00944402 5.83428 -3.22103 -0.151395 -0.731978 -0.586478 
227 1 0.59986 0.550586 0.0536148 0.401021 -3.35469 0.574345 -0.077901 -0.294319 
228 1 0.556512 0.597365 0.053645 1.54247 -3.25477 -0.111605 0.727284 -0.376739 
226 1 0.612573 0.593837 0.0022292 0.720118 -3.33057 -0.0155031 -0.482666 -0.131918 
222 1 0.538355 0.555336 0.00369852 6.50423 -3.23825 0.702534 0.335794 0.173205 
267 1 0.623621 0.635036 0.0501923 0.660552 -3.28219 -0.499369 0.256798 0.351659 
232 1 0.667701 0.589664 0.0510138 0.813287 -3.31596 0.0633593 -0.934141 0.123013 
230 1 0.717319 0.576468 0.000866266 1.66133 -3.24751 0.953707 0.535421 -0.0162712 
271 1 0.735211 0.624608 0.0509557 0.986416 -3.30371 0.00696215 -0.655178 -0.043801 
269 1 0.679911 0.627745 0.998689 0.917462 -3.30182 0.0227255 0.0618124 -0.189651 
236 1 0.777517 0.569199 0.0510687 0.878319 -3.33331 0.291481 0.526415 -0.116928 
234 1 0.839016 0.570357 1.00042 2.66207 -3.34044 -0.123208 -0.981602 0.112773 
275 1 0.847901 0.605686 0.0526569 0.950362 -3.29158 0.295048 0.352951 -0.550991 
273 1 0.788035 0.615058 0.00117237 0.424592 -3.34793 -0.0349092 -0.0463612 0.0811262 
240 1 0.898072 0.5554 0.0487403 0.570956 -3.35436 -0.129792 0.177612 -0.182053 
238 1 0.956217 0.550885 0.998197 0.589292 -3.3608 0.0107701 -0.578844 -0.0436846 
277 1 0.909861 0.598765 0.000115677 1.26554 -3.29989 -0.6304 0.328266 -0.021284 
279 1 0.963433 0.591486 0.0470309 0.781638 -3.3028 0.0576934 0.472624 -0.00454994 
283 1 0.0832011 0.669221 0.0483153 0.444533 -3.33667 0.510684 0.156297 0.435748 
284 1 0.0336117 0.717927 0.0527035 1.64979 -3.28819 0.246866 0.368325 -0.665266 
681 1 0.0293619 0.676866 0.0987612 0.241694 -3.31427 0.319116 -0.156499 0.284906 
682 1 0.0906825 0.716951 0.0982537 0.668612 -3.33046 0.241342 -0.146392 0.134117 
252 1 0.199552 0.656601 0.0491636 0.68862 -3.27971 0.0611593 0.544231 -0.171364 
287 1 0.149089 0.70736 0.0502979 0.513357 -3.35496 -0.0290046 -0.359166 -0.310234 
689 1 0.203209 0.706483 0.102557 3.37901 -3.28208 0.338201 -0.682904 -0.673531 
685 1 0.140716 0.665967 0.101162 0.418095 -3.35223 -0.131505 0.0609794 -0.403901 
256 1 0.305601 0.644324 0.0410838 7.54592 -3.28335 0.368329 -0.106139 0.0632246 
291 1 0.259445 0.695982 0.0445191 5.41747 -3.29893 0.16766 -0.155994 -0.207655 
295 1 0.336591 0.714416 0.0522004 6.05412 -3.27011 0.254207 0.12622 -0.167994 
650 1 0.259937 0.653391 0.0945034 2.18691 -3.32811 -0.245444 -0.118616 0.409092 
260 1 0.382953 0.663821 0.0475118 3.97245 -3.25099 -0.295328 0.49317 0.430276 
297 1 0.397812 0.70421 0.00418844 5.46972 -3.31962 -0.265837 0.356101 -0.0421424 
264 1 0.456113 0.702548 0.0568195 1.15304 -3.25062 -0.377595 -0.701943 -0.269521 
258 1 0.449997 0.657438 0.00504248 6.98362 -3.20527 -0.353149 0.318529 -0.0713991 
263 1 0.508901 0.648706 0.050195 2.21291 -3.18959 -0.554238 0.784512 1.15186 
658 1 0.395618 0.711256 0.103995 0.657829 -3.30586 -0.0767656 -0.22293 0.167264 
268 1 0.568422 0.687052 0.0546565 1.04758 -3.31677 0.308534 0.156721 -0.46149 
266 1 0.628776 0.671766 0.999157 2.5287 -3.32464 -0.233308 0.846405 -0.108993 
705 1 0.586909 0.726815 0.100545 4.42554 -3.29082 -0.531431 0.515762 0.149061 
272 1 0.685892 0.670551 0.0508964 0.304219 -3.26316 -0.406947 0.0806669 0.164136 
270 1 0.7414 0.665742 0.00479499 1.20115 -3.28552 0.279763 -0.0698675 -0.788636 
307 1 0.633468 0.722847 0.0493929 0.71324 -3.30552 -0.184153 -0.378196 -0.0909653 
309 1 0.688085 0.711104 0.00367094 1.55137 -3.28532 0.0567723 0.403858 -0.860188 
311 1 0.745866 0.708239 0.0479325 0.75486 -3.30055 1.03019 -0.112523 0.196479 
666 1 0.629973 0.674509 0.100182 2.27613 -3.29759 0.00337769 0.575866 -0.420701 
670 1 0.740616 0.66679 0.101324 0.628678 -3.33836 0.210779 -0.0709541 -0.276974 
276 1 0.801444 0.656761 0.0513551 0.934611 -3.32719 -0.00771143 0.252881 -0.365757 
315 1 0.86019 0.698635 0.0496712 0.959192 -3.34634 0.31008 -0.562121 -0.309573 
674 1 0.857142 0.650417 0.0982921 0.437713 -3.35244 0.137662 0.140215 -0.00199069 
278 1 0.970341 0.637632 0.997211 0.376067 -3.25544 -0.327087 -0.256699 -0.156401 
280 1 0.913924 0.645325 0.0471815 0.527344 -3.32202 -0.402631 -0.587676 0.559489 
319 1 0.973645 0.680396 0.0503745 0.521148 -3.29979 0.106411 0.487433 -0.0986665 
678 1 0.972526 0.637829 0.0984955 0.780726 -3.28389 -0.715125 0.12762 -0.0108037 
317 1 0.921108 0.685535 0.00241479 1.00918 -3.28198 0.00723625 0.780183 -0.476901 
318 1 0.987451 0.721792 0.996298 2.23974 -3.33207 -0.412973 0.23422 0.0848035 
288 1 0.101923 0.75633 0.0478351 0.685819 -3.29087 -0.430351 0.0772469 -0.0131403 
323 1 0.0476816 0.805078 0.0457 0.67446 -3.30567 0.42845 0.536089 -0.16564 
721 1 0.0391213 0.766761 0.0925948 2.70009 -3.28202 0.483537 -0.451661 0.908542 
292 1 0.215817 0.743766 0.0450102 2.30269 -3.32132 -0.0121743 0.141095 -0.437086 
327 1 0.163646 0.794453 0.0410856 5.52633 -3.27913 -0.00298734 -0.1538 0.48375 
686 1 0.158944 0.753271 0.0944005 2.17639 -3.28467 -0.486713 0.304637 0.321809 
331 1 0.235086 0.816996 0.0498738 1.51888 -3.29596 0.444369 -0.604022 0.46484 
690 1 0.23109 0.774343 0.0994517 5.93559 -3.2691 -0.364322 0.617109 0.0310004 
296 1 0.29417 0.764177 0.0509078 6.60313 -3.24556 -0.698226 0.198277 -0.410979 
294 1 0.350599 0.755276 0.00579707 7.28489 -3.30804 -0.015525 0.0501471 -0.163865 
300 1 0.359123 0.802014 0.0569292 2.19611 -3.33583 -0.131346 -0.0134254 -0.161121 
333 1 0.291442 0.805648 0.00203288 5.83951 -3.28769 0.0144478 -0.22613 -0.0554275 
694 1 0.294685 0.805866 0.0993989 1.59368 -3.3172 0.176234 0.911875 0.112729 
299 1 0.408066 0.749796 0.0590502 1.10305 -3.2892 -0.370097 0.341868 -0.717037 
304 1 0.468355 0.786374 0.0572088 0.849184 -3.32596 0.0417484 0.648263 -0.340734 
698 1 0.41528 0.795473 0.108124 1.75965 -3.30786 -0.571447 0.26185 -0.706511 
701 1 0.460665 0.743483 0.107502 1.35501 -3.24365 0.184369 0.375359 0.0736971 
305 1 0.573677 0.727309 0.00176456 0.303503 -3.36206 0.206832 -0.0424292 0.0840728 
303 1 0.512804 0.739151 0.0539116 2.26642 -3.2617 1.18419 0.0653906 0.163695 
308 1 0.579895 0.77346 0.0507034 1.01071 -3.32386 0.0358323 -0.357962 -0.0695488 
302 1 0.522498 0.780588 0.00140664 0.913618 -3.35965 0.280909 -0.171488 0.233942 
702 1 0.529617 0.782233 0.101562 0.820963 -3.29638 -0.50196 -0.0784944 -0.277437 
745 1 0.589154 0.817287 0.096003 0.582321 -3.30299 0.338336 0.550326 0.311638 
312 1 0.702151 0.753725 0.047869 2.1123 -3.23615 -0.563107 1.16801 -0.216306 
306 1 0.641973 0.763514 0.00337658 0.644826 -3.33884 -0.0750654 0.011229 -0.22887 
347 1 0.647178 0.80984 0.0484225 0.173268 -3.30743 0.300126 -0.162474 -0.063754 
349 1 0.707008 0.802315 0.998956 0.550676 -3.33252 -0.371221 -0.479049 0.456466 
310 1 0.75721 0.753948 -0.000816757 0.997992 -3.33578 -0.160765 -0.515353 -0.0318638 
351 1 0.766074 0.796059 0.0471522 0.791092 -3.32078 -0.496959 -0.017589 -0.0914387 
316 1 0.817258 0.748973 0.0467279 1.41983 -3.27053 -0.762639 -0.388098 -0.0958258 
353 1 0.822075 0.786559 0.991807 2.82205 -3.29125 -0.281108 0.598903 0.645423 
314 1 0.869926 0.74038 0.998813 0.514457 -3.27525 0.121191 -0.561269 -0.133808 
710 1 0.755206 0.752272 0.0934379 0.766678 -3.28476 0.0673516 -0.0913713 0.4075 
753 1 0.813614 0.788624 0.0981365 0.930178 -3.29556 0.745276 0.490984 -0.294004 
355 1 0.877372 0.784448 0.0475464 0.699907 -3.27249 -0.630687 0.0567946 0.0207336 
320 1 0.923339 0.73426 0.0516925 0.747792 -3.29415 -0.0128425 -0.468871 -0.577349 
359 1 0.984822 0.768223 0.0458117 0.436169 -3.30651 0.00416351 0.0258491 -0.199217 
757 1 0.927037 0.775324 0.0991107 0.347063 -3.26822 0.212368 0.264008 -0.193684 
328 1 0.115144 0.843701 0.0440044 2.45703 -3.32302 -0.334239 -0.391767 -0.151391 
363 1 0.0644724 0.889947 0.0504672 2.62786 -3.24754 0.0745205 0.569219 -0.709813 
722 1 0.0529248 0.855245 0.0989273 3.0272 -3.26738 -0.205751 -0.826922 0.427436 
332 1 0.188611 0.862399 0.0513572 6.22443 -3.22142 -0.423143 0.540566 0.272503 
730 1 0.194138 0.909172 0.100043 0.428614 -3.29819 -0.0751834 -0.229235 0.336546 
369 1 0.190976 0.905242 0.00357316 7.40675 -3.28863 -0.20114 0.257619 -0.249718 
330 1 0.244401 0.857928 0.00585418 6.5247 -3.24728 0.389889 0.0860717 -0.620704 
729 1 0.179307 0.826611 0.10035 1.24877 -3.26264 -0.114789 -0.306105 -0.0851282 
336 1 0.246459 0.901178 0.0513117 1.003 -3.27018 0.560257 0.136144 0.41899 
335 1 0.303725 0.85027 0.0524571 0.580613 -3.33662 -0.305172 0.0505521 0.179128 
340 1 0.36503 0.887769 0.0509931 0.494107 -3.3152 -0.0516434 0.140432 0.0540793 
334 1 0.306288 0.897136 0.00741263 1.97645 -3.31945 0.0750883 -0.294715 -0.533191 
734 1 0.306879 0.89337 0.105523 0.726881 -3.304 0.354681 0.322998 -0.466233 
737 1 0.360052 0.849391 0.101515 1.07132 -3.34548 -0.0108988 -0.591506 0.316256 
339 1 0.416611 0.84171 0.0495148 1.85715 -3.24571 -0.292101 -0.803119 0.695496 
344 1 0.478955 0.876367 0.0513209 0.456526 -3.30541 0.405073 0.107348 0.143254 
738 1 0.42516 0.883829 0.101814 0.300594 -3.31442 -0.318597 -0.0660506 -0.0411224 
741 1 0.473041 0.834258 0.101856 0.504092 -3.33999 0.101889 -0.155926 -0.287396 
338 1 0.422958 0.87895 0.00360964 0.528005 -3.24863 -0.61133 0.129812 -0.533822 
341 1 0.472713 0.82865 0.00550772 0.664878 -3.33123 0.367796 -0.0174572 -0.0350988 
343 1 0.533079 0.831034 0.0536774 2.80153 -3.28446 -0.660013 -0.799134 -0.212713 
348 1 0.595638 0.862077 0.0476257 0.683235 -3.26741 0.378724 -0.0309092 0.11737 
383 1 0.548954 0.909839 0.0462554 1.93512 -3.3086 -0.657037 -0.250237 0.508468 
342 1 0.541094 0.865994 0.000629782 0.873383 -3.30858 -0.557175 -0.130846 -0.262935 
385 1 0.603984 0.902384 0.995866 1.44691 -3.31167 -0.134974 0.0469187 0.45239 
352 1 0.709479 0.847571 0.0478572 0.187663 -3.34686 0.166696 -0.113661 -0.122745 
389 1 0.714767 0.891695 0.000554034 0.46371 -3.34217 0.340036 0.0459234 0.385012 
387 1 0.658913 0.899003 0.0506912 0.473819 -3.2794 -0.0586734 -0.270639 -0.540783 
346 1 0.652038 0.852076 0.998443 0.486145 -3.27466 -0.484569 -0.1416 0.596248 