ITEM: TIMESTEP
13250
ITEM: NUMBER OF ATOMS
4000
ITEM: BOX BOUNDS pp pp pp
2.6179975280095209e+00 3.7882002471989907e+01
-2.7012886492931782e+00 4.3201288649292387e+01
-5.9577447576726494e-01 4.1095774475767485e+01
ITEM: ATOMS id type xs ys zs c_csym c_peratom fx fy fz 
405 1 0.0539112 0.0502077 0.100098 0.230205 -3.25567 0.0114153 0.157974 -0.117694 
7 1 0.110383 0.0437132 0.0541083 0.435356 -3.32826 0.212726 0.22054 0.336692 
3 1 0.0498282 0.00654781 0.0529716 6.79517 -3.24948 0.0395808 0.0585216 0.109334 
6 1 0.118852 0.0889175 0.00702349 0.982101 -3.1631 -0.583979 0.752621 -0.0832688 
2 1 0.0600473 0.0522433 0.00413983 7.0225 -3.29821 -0.4963 -0.463514 0.203219 
12 1 0.174281 0.0819341 0.0549797 0.77074 -3.30484 -0.285326 -0.392463 -0.200016 
11 1 0.228585 0.0336419 0.0550503 2.79031 -3.33327 -0.893729 -0.369635 -0.436845 
10 1 0.222795 0.0794117 0.00263464 0.879828 -3.31449 -0.0147651 -0.395655 0.339676 
9 1 0.156991 0.0428124 0.00291025 2.48145 -3.19828 1.2152 -0.468908 -0.0971428 
16 1 0.281892 0.0720494 0.0529052 0.956988 -3.30688 0.639739 0.00476983 -0.0687837 
15 1 0.332686 0.0214598 0.0532667 0.841976 -3.33655 -0.412557 -0.285047 -0.22089 
413 1 0.276452 0.0242065 0.105039 0.666928 -3.2668 0.390231 -0.180941 -0.707662 
14 1 0.342483 0.059301 0.0017766 0.806184 -3.33258 -0.131897 0.320756 -0.0116865 
20 1 0.39524 0.0550523 0.0536569 0.763624 -3.31382 0.248628 0.0375659 -0.291954 
19 1 0.444269 0.00493363 0.0477015 0.542956 -3.33721 0.511926 0.249893 -0.0538441 
418 1 0.454021 0.0434638 0.0993496 1.40284 -3.339 -0.00730164 0.473614 -0.262728 
21 1 0.504008 0.997596 0.996166 0.606388 -3.2727 -0.133474 0.49508 0.442994 
17 1 0.390157 0.0114454 1.00005 0.46903 -3.34479 -0.144745 0.175695 0.0266088 
24 1 0.510596 0.0434364 0.0432199 1.90495 -3.32208 0.084085 -1.01516 0.606352 
28 1 0.622845 0.0315805 0.0476039 0.602969 -3.33242 0.266291 -0.181789 -0.116603 
23 1 0.566616 0.992422 0.051195 1.63628 -3.29469 -0.362285 -0.00506073 -0.484613 
63 1 0.57009 0.080235 0.0475063 0.926072 -3.2164 0.365585 -0.348655 -0.324317 
61 1 0.516258 0.0841422 -0.000883574 0.47147 -3.25008 0.156047 0.0960422 -0.362046 
32 1 0.736807 0.0189822 0.0468837 0.500225 -3.29908 0.364686 0.448941 0.0777129 
67 1 0.68779 0.0717015 0.0483528 0.909313 -3.29718 -0.220475 -0.704281 0.149544 
469 1 0.742275 0.0676271 0.0976144 0.985022 -3.23744 0.212341 -0.300731 -0.38002 
426 1 0.678967 0.0254617 0.0954639 0.734665 -3.37359 0.0686299 0.043212 0.139757 
26 1 0.680163 0.0255795 0.998258 0.328206 -3.31882 0.154318 -0.054448 0.0145262 
30 1 0.740854 0.0651753 1.00059 0.881512 -3.31828 0.303202 -0.0977914 -0.348441 
36 1 0.796811 0.0591396 0.0459832 0.994577 -3.36311 0.185905 -0.0719755 0.14864 
35 1 0.852445 0.00941901 0.0508576 1.63599 -3.26736 -0.266764 -0.303106 -0.75988 
434 1 0.864015 0.0524801 0.0951679 7.45851 -3.3005 0.0606418 0.25523 0.0983427 
430 1 0.801756 0.0148972 0.0995758 1.21471 -3.2899 -0.566497 0.348182 -0.0680976 
4 1 0.99524 0.0541703 0.0530307 7.83979 -3.31873 0.0953771 0.051074 -0.0591727 
40 1 0.913948 0.0435921 0.0429455 7.89084 -3.29976 0.409889 0.48699 0.094768 
437 1 0.911936 0.995473 0.0970494 7.07033 -3.2936 0.534136 0.571753 -0.266329 
8 1 0.060247 0.094037 0.0561893 0.58453 -3.33182 0.217326 0.268419 0.0563149 
43 1 0.00925071 0.146418 0.0503486 0.571068 -3.31466 0.363673 -0.0355533 0.254442 
45 1 0.0692162 0.137492 0.00792009 1.44753 -3.29802 -0.424496 0.397215 0.137854 
47 1 0.12607 0.13171 0.0536702 0.916548 -3.2799 -0.587744 0.0616728 0.343402 
46 1 0.131518 0.179266 0.0110625 2.59566 -3.19679 -0.592536 -0.57071 -1.11519 
445 1 0.0663247 0.143086 0.101478 0.978116 -3.3603 -0.362547 -0.488131 -0.528625 
446 1 0.130623 0.177719 0.101562 0.459454 -3.33157 -0.344204 0.178598 0.0434309 
52 1 0.185432 0.167515 0.0575304 1.05417 -3.23723 0.217777 0.374382 -0.210288 
51 1 0.229429 0.119376 0.0571769 1.50765 -3.26417 0.939093 0.351335 -0.650848 
450 1 0.244329 0.16237 0.101658 0.802033 -3.37401 -0.0221645 -0.0778896 0.01565 
449 1 0.176718 0.125005 0.104668 0.630094 -3.22504 0.191873 0.287168 -0.00147283 
49 1 0.175477 0.129312 0.00446193 0.665328 -3.29072 0.598624 -0.0612784 -0.135786 
55 1 0.35233 0.107087 0.0548355 1.08775 -3.29656 -0.540366 -0.494314 -0.807057 
56 1 0.299709 0.155179 0.0496542 0.811784 -3.31145 -0.661929 -0.140164 0.186172 
453 1 0.295928 0.111155 0.100297 0.803436 -3.32728 -0.413532 0.216778 0.0528299 
454 1 0.359624 0.147853 0.0999167 0.489676 -3.24691 -0.439163 0.120905 0.247657 
53 1 0.288715 0.112335 0.00450397 0.303748 -3.32571 0.323184 0.103803 0.0877447 
59 1 0.461295 0.0868675 0.0528356 1.84707 -3.29366 -0.0751361 0.500656 -0.0724996 
60 1 0.41849 0.139361 0.0512165 1.47546 -3.2706 -0.435779 0.251192 -0.358297 
457 1 0.40676 0.10052 0.0995686 0.78269 -3.30567 0.396 -0.566556 0.550223 
57 1 0.403666 0.0956707 1.00038 0.595887 -3.29412 -0.311138 0.248646 0.162341 
58 1 0.465345 0.131466 0.000533432 0.722719 -3.27303 0.266374 0.356061 0.0901417 
64 1 0.522057 0.128257 0.0469907 0.461228 -3.34853 0.0825726 0.417044 0.278066 
103 1 0.588869 0.169273 0.0461241 0.584711 -3.34039 0.127136 -0.497955 0.210035 
101 1 0.531937 0.173002 0.998797 0.434866 -3.36095 -0.165934 -0.170581 -0.0627497 
62 1 0.578127 0.119575 1.00075 0.963871 -3.34456 0.265011 0.667085 -0.519316 
68 1 0.637811 0.115686 0.0458191 1.25254 -3.29464 -0.542002 0.639306 -0.0348529 
505 1 0.647237 0.167323 0.0948842 1.64129 -3.23688 -0.769408 -0.494882 0.208159 
72 1 0.695116 0.161525 0.042903 2.31591 -3.2655 0.30818 -0.35923 0.359086 
466 1 0.68433 0.116068 0.0965324 2.85359 -3.26969 0.618068 -0.182227 -0.0189495 
66 1 0.642505 0.162655 0.99897 0.690991 -3.29807 -0.32532 0.298874 -0.458083 
75 1 0.864361 0.0943095 0.0357949 8.17289 -3.2549 0.0687455 0.00385058 0.567861 
473 1 0.804949 0.102216 0.0939183 5.87598 -3.3288 0.511165 -0.17516 0.176564 
71 1 0.744914 0.111122 0.0486793 1.20634 -3.2668 0.171614 -0.103182 -0.377305 
470 1 0.753635 0.149876 0.0951654 4.65559 -3.3092 0.0733263 0.327823 0.256041 
76 1 0.813853 0.14441 0.0419088 6.96542 -3.21524 0.0292059 -0.180857 -0.643631 
402 1 0.00364495 0.0997796 0.102343 0.892447 -3.31949 -0.613232 0.379319 -0.523349 
79 1 0.95129 0.10532 0.0505109 7.29483 -3.2835 -0.370622 -0.59408 0.443331 
80 1 0.896879 0.149411 0.0516017 6.34522 -3.18269 -0.781918 0.721779 -0.317969 
41 1 0.00950995 0.0980832 0.00740718 7.28346 -3.26345 -0.671897 0.09111 -0.208123 
78 1 0.950263 0.149838 0.00674697 8.21381 -3.22292 0.00992794 -0.151889 -0.415929 
48 1 0.0670174 0.187553 0.0518467 2.10262 -3.34557 0.358593 -0.388546 0.277967 
42 1 0.0132243 0.1939 0.00294086 1.3063 -3.29021 0.0248123 -0.680242 -0.0186968 
83 1 0.0185564 0.233593 0.0495896 0.57033 -3.30018 0.227187 0.374877 0.507935 
88 1 0.0846442 0.269872 0.0511629 0.412858 -3.33132 -0.0955408 0.233559 0.474911 
485 1 0.080278 0.228768 0.103725 0.72971 -3.40451 -0.040808 -0.0902228 -0.312679 
87 1 0.137483 0.217407 0.0524884 1.70595 -3.23166 0.02085 1.0999 1.01412 
91 1 0.24063 0.206002 0.0524851 2.12294 -3.29297 0.712974 0.123487 0.275789 
92 1 0.19689 0.257778 0.0549681 0.523271 -3.35516 0.228982 -0.140337 -0.102604 
86 1 0.13733 0.263695 0.00380837 0.517311 -3.29709 0.858028 0.472601 -0.00186315 
489 1 0.193518 0.215194 0.107958 1.65456 -3.3288 -0.445447 -0.0770929 -0.545835 
486 1 0.142983 0.26977 0.103541 1.65468 -3.3214 -0.170853 -0.498531 0.0493012 
95 1 0.35817 0.189167 0.0522536 1.24528 -3.32275 0.986511 0.555382 -0.333553 
96 1 0.308723 0.236374 0.0539819 1.98593 -3.35517 0.211388 0.533622 -0.15275 
93 1 0.30505 0.19784 0.999204 0.951843 -3.29792 -0.128193 0.0541522 0.484356 
99 1 0.474684 0.179115 0.0492704 0.281153 -3.37362 0.135191 0.207857 -0.253788 
100 1 0.425518 0.232555 0.0496574 1.14171 -3.32554 -0.392754 -0.677022 0.0989145 
139 1 0.488663 0.266826 0.0533485 1.25073 -3.28417 -0.0489001 -0.0460817 -0.50416 
104 1 0.540757 0.214384 0.0496611 1.27265 -3.28875 -0.593278 0.526489 -0.373429 
108 1 0.595704 0.261052 0.0489203 2.09333 -3.22939 0.321507 -1.00981 -0.309932 
502 1 0.593877 0.210754 0.096648 0.746907 -3.26658 0.384801 0.180866 0.199718 
541 1 0.545351 0.257266 0.0994382 2.077 -3.28685 -0.259458 0.848184 -0.025847 
102 1 0.539046 0.259339 0.996845 0.851406 -3.34773 -0.0172639 0.0490965 0.117786 
107 1 0.651895 0.212979 0.0472548 2.14897 -3.31827 -0.440958 0.0128068 -0.204001 
509 1 0.70441 0.20191 0.0987754 5.53027 -3.25557 0.622269 0.0420084 -0.17944 
112 1 0.716213 0.242791 0.0392355 9.1146 -3.24979 -0.442107 0.270514 0.114082 
506 1 0.655477 0.251814 0.100907 6.762 -3.27979 -0.207292 -0.123653 -0.367532 
115 1 0.844427 0.204337 0.0493658 7.20327 -3.31704 -0.229266 -0.498189 0.0294478 
111 1 0.761084 0.189015 0.039979 7.20489 -3.27711 0.25744 0.498109 0.360887 
116 1 0.790869 0.249488 0.0513499 6.85779 -3.25673 0.283923 0.227061 0.516465 
114 1 0.848157 0.247736 0.00496161 7.63872 -3.29568 -0.0943984 -0.00556243 -0.0452159 
44 1 0.957584 0.193088 0.0515341 0.589013 -3.25876 0.215722 0.49661 -0.133837 
81 1 0.963505 0.24155 0.0025885 0.969474 -3.22818 -0.357474 -0.614954 0.0378357 
119 1 0.908718 0.243088 0.0475679 0.742602 -3.31003 -0.168177 0.505633 0.333117 
117 1 0.902347 0.196951 0.00368178 6.47308 -3.3246 -0.344766 0.00933069 0.0400635 
123 1 0.034762 0.318571 0.0480001 0.917754 -3.38547 -0.219895 0.412084 0.462654 
128 1 0.10155 0.356203 0.0540889 0.911056 -3.3164 -0.181255 0.141903 -0.153052 
122 1 0.0377129 0.364382 -0.000176254 0.425433 -3.34569 0.00592408 0.172761 0.104898 
482 1 0.0272438 0.277386 0.101477 0.432229 -3.31769 0.55615 -0.0741862 -0.506185 
522 1 0.0439405 0.367997 0.0975665 1.12518 -3.33479 -0.321406 -0.405142 0.0403382 
525 1 0.0894246 0.315471 0.101536 0.677513 -3.32305 -0.0271782 -0.167352 0.0679269 
129 1 0.204298 0.303927 0.000100332 1.46085 -3.27777 -0.210929 -0.52318 0.545025 
127 1 0.150988 0.305027 0.0517115 0.961785 -3.30712 -0.370925 0.401857 0.00868679 
132 1 0.210844 0.342756 0.0510449 0.546758 -3.3519 -0.0176806 0.505039 0.131458 
529 1 0.211819 0.299347 0.102799 1.49552 -3.25294 -0.361604 0.435824 -0.460182 
526 1 0.154743 0.346918 0.104812 1.39906 -3.37785 0.466425 0.261594 -0.239367 
135 1 0.373305 0.278366 0.0471786 1.2558 -3.35143 0.210629 0.0374279 0.482183 
133 1 0.312947 0.284276 0.00788644 2.2461 -3.23972 0.721745 -0.149101 -0.802823 
131 1 0.260603 0.296414 0.0503222 1.32507 -3.24029 -0.252273 -0.550325 0.334241 
136 1 0.32631 0.331515 0.0465041 1.01128 -3.28771 -0.0959823 0.00253751 0.634152 
533 1 0.31917 0.286578 0.0977595 0.574231 -3.36037 -0.0390319 -0.290481 -0.172596 
140 1 0.439929 0.317733 0.0513745 0.468988 -3.37994 -0.0806283 0.126558 -0.571615 
538 1 0.49423 0.31308 0.0988485 0.417027 -3.30916 0.597022 -0.0697065 -0.115298 
577 1 0.446738 0.362491 0.0976227 0.554053 -3.33324 0.156378 0.0199642 -0.123047 
144 1 0.50876 0.354377 0.0456097 2.08768 -3.19987 -1.13868 -0.486777 0.169733 
143 1 0.546583 0.303024 0.0455324 1.12493 -3.24515 0.192499 0.615352 0.189168 
545 1 0.605537 0.300922 0.0964809 5.61764 -3.31884 -0.0978551 0.0211594 0.306825 
148 1 0.613688 0.346519 0.0424894 7.39926 -3.34151 -0.249348 -0.312782 0.111115 
542 1 0.561348 0.350228 0.0936164 6.25717 -3.29094 0.057734 -0.644028 0.324344 
147 1 0.659671 0.292542 0.0470532 6.71925 -3.30771 0.358516 0.074636 -0.594881 
151 1 0.741742 0.30134 0.0554369 7.14487 -3.33018 -0.275828 -0.23872 -0.0912671 
152 1 0.693896 0.352434 0.0524848 6.91924 -3.35188 -0.194283 -0.123904 0.308993 
150 1 0.74515 0.347973 0.0040649 7.10455 -3.27012 0.102293 0.0379748 0.263807 
553 1 0.752719 0.346432 0.0991927 0.367328 -3.29083 -0.353385 0.382829 0.24351 
120 1 0.852243 0.29563 0.0505148 0.511178 -3.27005 0.763684 -0.452765 -0.0127957 
153 1 0.793864 0.296534 0.00715966 7.2369 -3.30778 -0.0309276 -0.00317887 -0.460975 
155 1 0.801488 0.342126 0.051674 0.638622 -3.23759 0.334372 0.460529 -0.294624 
157 1 0.858329 0.337619 0.00542367 0.275336 -3.318 0.0355203 0.265328 -0.184384 
84 1 0.969594 0.28429 0.0488959 0.385631 -3.36288 -0.130623 0.258216 0.251635 
159 1 0.919068 0.335718 0.0524156 0.561102 -3.36422 -0.16441 -0.330594 -0.467076 
121 1 0.971767 0.327496 -0.00431046 1.72541 -3.27718 0.0500271 -0.0358562 0.905849 
163 1 0.0482567 0.40874 0.0474638 0.67239 -3.35091 0.0366555 -0.206936 0.202221 
165 1 0.106827 0.394685 0.00122217 2.27965 -3.31665 -0.430926 0.812631 0.263281 
168 1 0.1098 0.442821 0.0513661 0.604395 -3.36348 0.127039 0.146754 -0.451465 
162 1 0.0534861 0.45193 0.997253 0.750534 -3.30258 -0.20029 -0.231525 -0.0573855 
167 1 0.16334 0.395242 0.0545007 1.20039 -3.30664 -0.505987 -0.535231 -0.25576 
172 1 0.217263 0.432885 0.0453155 1.77873 -3.22834 0.672674 0.24026 0.352601 
569 1 0.221429 0.390323 0.098684 0.747875 -3.30497 -0.387392 -0.593426 0.0602095 
566 1 0.164679 0.4425 0.0991249 1.73713 -3.30147 0.0944211 -0.537827 0.0844436 
171 1 0.26857 0.386133 0.0470411 2.73043 -3.25764 0.6157 -0.767993 0.198669 
176 1 0.336007 0.41757 0.0474071 0.286018 -3.31261 -0.0087058 0.020588 -0.0858292 
573 1 0.336769 0.371613 0.0988211 1.46516 -3.28728 -0.543089 0.283035 -0.355996 
570 1 0.281928 0.427849 0.092551 1.3685 -3.25727 -0.358176 -0.688004 0.595849 
175 1 0.385126 0.370659 0.0485791 1.43438 -3.28417 0.581439 -0.536971 0.0884851 
179 1 0.455513 0.399563 0.0473922 2.20333 -3.3089 -0.112169 0.696371 0.488866 
180 1 0.401786 0.452638 0.0468904 0.577296 -3.3105 0.304379 -0.235464 0.25589 
578 1 0.469424 0.448431 0.0961585 8.25036 -3.30751 -0.718867 0.107746 -0.794739 
183 1 0.558661 0.393742 0.0454926 6.81907 -3.2004 1.16678 0.442653 -0.382532 
581 1 0.517855 0.39685 0.0989671 8.35784 -3.2706 -0.703092 0.458777 0.0171714 
184 1 0.513282 0.441447 0.0400271 8.45678 -3.29662 -0.409173 0.261682 0.601131 
188 1 0.590722 0.453131 0.0588778 7.28164 -3.3166 0.924756 -0.24719 -0.656305 
189 1 0.695109 0.397291 0.00465694 6.79237 -3.2964 0.00787922 0.21056 0.286064 
187 1 0.647364 0.405368 0.0560364 7.3014 -3.34224 -0.44389 -0.15533 -0.160025 
191 1 0.707166 0.443602 0.0568804 0.628293 -3.2973 0.0476991 -0.0156532 -0.747899 
186 1 0.647302 0.447647 0.00490142 6.82046 -3.33263 -0.271676 -0.191269 0.598763 
156 1 0.754086 0.393431 0.0526419 0.221722 -3.35979 -0.0211348 -0.0804222 0.102835 
154 1 0.811752 0.386006 0.0068336 1.33242 -3.34061 -0.445141 0.167663 -0.299109 
160 1 0.868024 0.385708 0.0534271 0.958301 -3.30058 0.337977 -0.3635 -0.501956 
195 1 0.815907 0.433876 0.0510069 0.375345 -3.23071 0.00195251 -0.539844 -0.197653 
193 1 0.756378 0.435334 0.00370218 0.591543 -3.36345 0.211128 0.15989 0.012279 
593 1 0.764468 0.438004 0.100951 0.316244 -3.30451 0.024607 -0.110664 0.0596323 
124 1 0.982488 0.370314 0.0469206 0.562946 -3.30242 0.402306 -0.00180058 -0.145599 
158 1 0.921731 0.377322 1.00124 0.520864 -3.35585 -0.1038 0.0233964 0.105625 
197 1 0.867959 0.424693 -0.00136818 1.39057 -3.34802 0.725788 0.229709 0.251399 
199 1 0.930922 0.420163 0.0493152 0.4993 -3.32393 0.0104903 0.403174 -0.36896 
561 1 0.988878 0.416312 0.0944047 1.04354 -3.31396 0.532363 0.404996 0.350667 
205 1 0.113276 0.486915 0.997944 0.36436 -3.32433 0.369939 -0.185627 0.10654 
203 1 0.0553189 0.493813 0.0475428 0.828056 -3.31588 0.446996 -0.138841 0.510428 
208 1 0.119696 0.531383 0.0433404 1.99256 -3.3339 0.403535 -0.325709 0.700298 
204 1 0.0103197 0.543286 0.0497611 0.316946 -3.38193 -0.142157 -0.00983896 0.117274 
201 1 0.999873 0.499509 0.998488 0.517805 -3.25523 0.0986099 0.412051 -0.00682312 
605 1 0.116376 0.489115 0.097268 0.555175 -3.29989 0.057973 -0.05776 -0.135652 
207 1 0.173473 0.480638 0.0458392 0.621073 -3.33133 -0.409665 0.24848 0.208467 
212 1 0.236043 0.519612 0.0520576 0.544443 -3.33594 0.143985 -0.0348164 -0.239051 
609 1 0.230716 0.473429 0.0971662 0.398962 -3.3273 0.10574 0.137288 0.0517636 
606 1 0.181022 0.520931 0.100185 0.832891 -3.28247 0.356003 0.184646 -0.443205 
211 1 0.286306 0.470449 0.0486166 0.57146 -3.30559 -0.129621 0.0230651 -0.397278 
215 1 0.354065 0.498715 0.0504234 1.84732 -3.24022 -0.314243 0.743078 -0.812433 
613 1 0.342026 0.460351 0.0962575 1.06154 -3.25801 0.595327 0.151804 0.449879 
610 1 0.294445 0.513527 0.10217 1.7757 -3.29244 0.324891 -0.680476 -0.353307 
174 1 0.342768 0.459609 0.996699 0.62233 -3.36843 -0.138339 0.267443 -0.102508 
219 1 0.467836 0.49229 0.0459603 6.81211 -3.328 -0.117393 -0.210889 0.126682 
617 1 0.410527 0.494153 0.0961299 6.42349 -3.29355 0.571751 -0.0675043 -0.101196 
582 1 0.54597 0.456765 0.105392 6.45953 -3.20108 -0.266189 -0.0046572 0.503756 
225 1 0.59702 0.501483 0.00991818 8.52541 -3.29561 0.405945 -0.548932 0.125002 
223 1 0.544395 0.503496 0.0588976 7.52494 -3.2776 -0.110424 0.13511 0.0125806 
227 1 0.604274 0.547957 0.0574921 1.46427 -3.27953 0.0293488 -0.524078 -0.756574 
586 1 0.600893 0.503884 0.102698 1.69189 -3.24033 -0.232394 -0.509042 0.189631 
192 1 0.656281 0.490699 0.0578497 1.24568 -3.31104 -0.142998 0.38924 -0.510398 
190 1 0.706761 0.48994 0.00599248 1.1445 -3.34009 0.547082 -0.270615 0.303035 
231 1 0.716771 0.536068 0.0563767 1.75131 -3.29598 0.0674538 -0.58565 -0.779889 
229 1 0.659789 0.537839 0.00648994 0.423829 -3.30413 -0.108786 0.110367 0.213618 
196 1 0.771514 0.481069 0.0497554 1.6512 -3.26698 -0.844179 0.524039 -0.0696432 
194 1 0.820758 0.47407 0.00178295 0.445649 -3.25925 0.218176 0.244537 0.114195 
235 1 0.832662 0.52531 0.0558806 1.95368 -3.33511 0.114508 -0.490927 -0.457685 
233 1 0.771079 0.52695 0.0063685 0.853683 -3.38329 0.198239 0.0848505 -0.00557459 
164 1 0.995338 0.457688 0.0437183 1.64652 -3.22419 -0.108176 0.381473 1.08278 
200 1 0.878222 0.46697 0.048942 1.77376 -3.30675 0.316415 0.748635 -0.175207 
198 1 0.935423 0.469687 0.00211258 1.93288 -3.30463 -0.411689 -0.861493 -0.156376 
239 1 0.937508 0.509872 0.0527568 2.39637 -3.2449 0.81964 0.0264805 -0.465593 
237 1 0.886611 0.517714 0.00254175 0.781145 -3.35164 -0.348882 -0.272888 -0.0900519 
598 1 0.941252 0.466349 0.0960085 1.21888 -3.31559 -0.285816 -0.544146 0.367262 
243 1 0.0744759 0.579512 0.0479341 0.793572 -3.30861 -0.155935 0.103153 0.379612 
241 1 0.0217764 0.586496 0.998185 1.65075 -3.28921 -0.837629 0.243893 0.487331 
244 1 0.0205247 0.630397 0.0514193 0.921451 -3.28053 0.426413 0.135151 0.100069 
642 1 0.0814965 0.618559 0.0989372 1.98317 -3.3201 0.164537 0.577504 0.26296 
247 1 0.187526 0.566505 0.0501611 0.443547 -3.36448 -0.2347 0.0825694 0.111654 
251 1 0.254493 0.600724 0.051186 1.83594 -3.29179 -0.152707 0.0473345 -0.347407 
248 1 0.140979 0.620313 0.0542805 1.36911 -3.32506 -0.139958 -0.547011 -0.331379 
645 1 0.132449 0.569918 0.099282 0.991035 -3.32659 0.00192386 0.520616 -0.282929 
649 1 0.246134 0.562786 0.100562 0.574306 -3.26345 -0.27643 -0.452572 -0.0473338 
646 1 0.198177 0.6116 0.101781 0.646306 -3.24464 -0.640965 -0.743463 -0.265943 
216 1 0.302608 0.553768 0.0551688 1.93662 -3.2591 0.122358 -0.229913 -0.691848 
255 1 0.362219 0.591342 0.0478988 7.14174 -3.29926 0.190921 -0.0672616 -0.162705 
614 1 0.366045 0.542843 0.0948213 7.59374 -3.26936 -0.610252 0.528487 0.364665 
653 1 0.311509 0.598555 0.10072 7.12419 -3.27378 0.37383 0.150049 -0.246469 
220 1 0.417912 0.538466 0.0470012 7.35619 -3.23677 -0.234407 0.240768 -0.933977 
259 1 0.441165 0.605458 0.0561049 7.66166 -3.24665 -0.453818 -0.756106 -0.198202 
224 1 0.495277 0.554654 0.0555322 6.53159 -3.3374 -0.167099 0.0894677 0.167616 
261 1 0.500115 0.596041 0.00294423 6.2196 -3.30349 0.0835823 -0.028909 0.286347 
228 1 0.553033 0.597316 0.0583595 2.14102 -3.2815 -0.161213 -0.146775 -0.541588 
226 1 0.600818 0.58919 0.00565743 2.41198 -3.3414 0.0929896 -0.226933 -0.103422 
222 1 0.54404 0.543026 0.00620149 7.69535 -3.20468 0.577077 1.10693 0.23113 
265 1 0.554342 0.643667 0.00333342 2.28723 -3.30554 0.578572 -0.663164 0.237384 
232 1 0.669977 0.584163 0.0497076 0.608616 -3.33564 -0.274623 0.0534606 0.168035 
230 1 0.723943 0.576014 0.00142165 0.835503 -3.3151 -0.0593393 -0.0289671 -0.0305217 
267 1 0.618364 0.633118 0.0509662 0.567774 -3.3053 -0.281719 0.0960233 -0.0506929 
271 1 0.736814 0.618374 0.0451333 2.68686 -3.25203 -0.897394 0.577436 0.704158 
269 1 0.670892 0.629524 0.00232287 0.991957 -3.3306 0.336153 -0.306283 -0.0168654 
236 1 0.786524 0.572402 0.0540705 1.04122 -3.29589 -0.400604 -0.29637 -0.543508 
234 1 0.840396 0.566073 8.51118e-05 0.863838 -3.33881 -0.314052 -0.0592072 0.325079 
275 1 0.846247 0.610851 0.0513447 0.385962 -3.29912 0.375626 -0.0952512 -0.341598 
273 1 0.791632 0.615491 0.00449061 0.78976 -3.27219 0.0572736 -0.0712712 -0.877124 
240 1 0.895717 0.560695 0.0524895 0.27467 -3.32663 -0.024258 0.197208 0.0692033 
238 1 0.951947 0.553835 1.00509 0.94658 -3.33348 0.131391 -0.207246 -0.473145 
277 1 0.903129 0.603589 -0.000333037 0.314247 -3.31992 0.238468 -0.0920158 0.391539 
279 1 0.961652 0.593626 0.0528163 0.566254 -3.30039 -0.323008 0.156633 -0.0430843 
278 1 0.969959 0.642044 0.00378026 1.01831 -3.30779 -0.239255 -0.542412 -0.370759 
283 1 0.0898528 0.665232 0.0526826 0.53999 -3.33388 -0.102629 0.388545 0.0787753 
284 1 0.0400046 0.717157 0.0544738 0.394118 -3.34144 0.138627 0.112917 -0.0709602 
681 1 0.0344268 0.672876 0.100466 0.580238 -3.29475 -0.0228259 0.205055 -0.220387 
682 1 0.0995801 0.71172 0.102922 0.48127 -3.35365 0.0328352 -0.0403475 -0.200756 
252 1 0.211253 0.651385 0.0563375 4.12968 -3.17837 -1.05196 0.447018 -0.395813 
287 1 0.153918 0.703395 0.0524148 0.666443 -3.33225 0.305301 -0.313781 -0.206846 
689 1 0.210439 0.697679 0.104805 6.64433 -3.34648 0.638638 0.102282 -0.476917 
685 1 0.146538 0.661001 0.100434 0.697227 -3.29867 0.0278116 -0.0291496 0.307789 
256 1 0.309658 0.64173 0.0425902 8.84683 -3.31221 0.226035 0.152419 0.317063 
291 1 0.262417 0.692525 0.047652 6.46967 -3.26034 0.159827 0.292454 0.282626 
295 1 0.33497 0.711621 0.0532766 8.03362 -3.25741 0.75212 -0.398101 -0.326036 
650 1 0.262982 0.644156 0.0992599 5.93886 -3.20834 0.161693 0.346793 0.127012 
260 1 0.386285 0.651368 0.0557271 8.46257 -3.24936 0.210947 0.731755 0.100483 
297 1 0.394373 0.697319 0.00432475 8.70144 -3.31361 -0.291411 0.210414 0.544261 
264 1 0.450292 0.692865 0.0498878 0.7343 -3.33081 0.0877233 0.46894 0.0755749 
258 1 0.44324 0.648373 0.0027317 7.22971 -3.20969 -0.298164 -0.205074 0.125996 
263 1 0.496264 0.639995 0.0455997 5.69666 -3.16362 1.00918 0.88108 0.644406 
268 1 0.571268 0.684282 0.0524898 1.55558 -3.31646 -0.479366 -0.168999 -0.160881 
262 1 0.509086 0.693201 0.00482864 1.73414 -3.21174 -0.422002 -0.55006 -0.254302 
305 1 0.569212 0.730336 1.00189 0.482995 -3.29816 0.199445 0.288234 -0.133308 
266 1 0.619719 0.682922 6.36341e-05 1.68372 -3.28692 0.254769 -0.615808 0.191332 
272 1 0.677115 0.672072 0.0496135 0.890771 -3.31387 0.475567 0.139511 -0.101464 
270 1 0.737676 0.66768 0.00178385 0.276056 -3.36528 -0.186549 -0.177901 0.0474726 
307 1 0.630523 0.724464 0.0482992 0.558394 -3.2972 -0.000180531 -0.117343 0.322571 
309 1 0.684225 0.717309 0.0028273 0.265932 -3.31216 0.192332 0.0666086 -0.416438 
276 1 0.795058 0.659672 0.0490651 0.406468 -3.29778 0.084262 0.341015 -0.174884 
274 1 0.854991 0.652084 -0.000898283 0.749555 -3.33902 -0.111624 0.60411 0.429389 
311 1 0.741453 0.712118 0.0511557 0.653269 -3.35967 0.340245 -0.113456 -0.0633178 
315 1 0.857781 0.699004 0.0487557 0.905782 -3.32269 0.385844 -0.458455 -0.0724251 
313 1 0.801051 0.705156 1.00135 0.228984 -3.35914 0.0189459 0.216357 -0.0541056 
280 1 0.914266 0.645516 0.0499358 1.12454 -3.32157 -0.567808 -0.0105361 -0.06811 
319 1 0.974088 0.684658 0.0563891 1.33194 -3.3345 0.0310364 0.090524 -0.535477 
678 1 0.964593 0.640018 0.101011 0.569288 -3.31142 0.280362 -0.37072 0.15517 
288 1 0.111134 0.753073 0.0501966 1.53283 -3.24106 -1.02423 -0.213018 0.0634402 
725 1 0.116349 0.7979 0.0966764 6.64068 -3.33063 -0.457113 0.0521371 0.0534921 
323 1 0.0558543 0.8014 0.0509579 1.50284 -3.2848 -0.0546568 0.36769 -0.208132 
721 1 0.0484714 0.76123 0.10078 0.436201 -3.31573 0.241169 0.0806907 -0.159532 
292 1 0.216347 0.746824 0.0478702 7.83573 -3.26962 0.00905195 -0.607317 -0.167752 
327 1 0.166354 0.790224 0.0450276 5.46919 -3.2062 0.120897 0.772011 -0.213528 
686 1 0.163761 0.746748 0.0977663 6.55064 -3.28824 0.0514386 0.131194 0.39371 
331 1 0.240084 0.812852 0.0530361 6.11943 -3.26735 0.706796 -0.821822 -0.287996 
690 1 0.237573 0.762544 0.107477 7.69194 -3.25412 0.329043 -0.140736 -0.263668 
296 1 0.291129 0.762627 0.0552651 6.39445 -3.18722 -0.383023 -0.0266128 -0.0342277 
294 1 0.352127 0.749953 0.00390123 7.75017 -3.21532 -0.776732 0.331382 0.286062 
300 1 0.350385 0.799621 0.0499225 0.711926 -3.30621 0.609822 -0.113518 0.199966 
333 1 0.298548 0.802267 0.00447786 7.02106 -3.32544 -0.625998 0.151472 -0.276674 
694 1 0.294184 0.802121 0.103715 0.615625 -3.26499 -0.000953646 0.413993 0.0490032 
299 1 0.400264 0.748656 0.0516097 0.63677 -3.31199 0.146185 -0.405253 0.251887 
304 1 0.457 0.78668 0.0497577 1.32712 -3.30545 0.49774 0.216578 0.247082 
301 1 0.455198 0.744391 -0.00122905 1.57316 -3.27093 0.189638 -0.433852 0.691236 
698 1 0.407942 0.792654 0.100138 0.320329 -3.31196 -0.011691 -0.100535 -0.159641 
298 1 0.405507 0.793154 -0.0037711 1.30873 -3.24537 -0.336883 0.0801784 0.77404 
303 1 0.513596 0.733587 0.0472445 0.980362 -3.32608 -0.124622 0.655818 0.916955 
308 1 0.579666 0.774209 0.048255 0.644434 -3.33844 -0.202183 -0.167429 0.320651 
302 1 0.512809 0.785136 0.00613968 3.86196 -3.28283 0.446935 -0.610252 -0.553233 
702 1 0.524393 0.775885 0.0995411 0.40286 -3.3158 -0.051392 0.171004 -0.367651 
345 1 0.583821 0.818389 0.00179364 0.668764 -3.25503 0.519969 -0.477307 -0.0464008 
312 1 0.693504 0.76107 0.0496694 0.415136 -3.34197 -0.106467 -0.116784 0.126764 
306 1 0.631323 0.769032 1.00044 0.962282 -3.35335 0.577983 -0.169819 -0.0553169 
347 1 0.648341 0.811988 0.0496195 0.781614 -3.32577 -0.490094 -0.392418 -0.00299419 
349 1 0.705325 0.806439 0.0014363 0.688872 -3.32291 -0.248718 -0.289064 -0.506447 
310 1 0.7473 0.755448 0.999614 0.674625 -3.33965 0.345851 -0.291547 0.0329945 
351 1 0.76037 0.796066 0.0484602 0.616863 -3.30116 0.010775 0.144804 0.32605 
316 1 0.809096 0.747716 0.0534713 0.556015 -3.31971 -0.08161 0.188757 -0.255985 
355 1 0.873561 0.783385 0.0526078 0.614686 -3.33908 0.0660081 0.128245 -0.327341 
353 1 0.815061 0.787055 0.00156211 1.22904 -3.3216 0.329705 0.215254 -0.231544 
314 1 0.867996 0.740776 0.00169123 0.471943 -3.30138 -0.438629 0.0902519 0.260487 
320 1 0.92469 0.734899 0.0540957 0.534345 -3.35294 0.0399586 -0.252767 -0.347926 
359 1 0.988571 0.770069 0.0532895 0.247529 -3.35234 0.00257626 0.0772965 0.00699842 
328 1 0.120136 0.841221 0.0420085 7.1932 -3.27903 -0.657734 -0.00194725 -0.179426 
363 1 0.0701083 0.892227 0.046404 5.63649 -3.27273 -0.445633 -0.185541 -0.636433 
722 1 0.060895 0.845049 0.0932021 7.63593 -3.34231 0.55033 0.332071 0.306148 
761 1 0.0176173 0.896915 0.0966131 5.65937 -3.29525 -0.238521 0.292277 -0.202114 
332 1 0.195863 0.856764 0.0508016 6.07171 -3.16188 -0.34874 0.305477 0.398466 
367 1 0.142128 0.90535 0.0512986 7.22567 -3.30498 0.583724 0.139802 0.208665 
730 1 0.200587 0.898321 0.100353 0.578239 -3.33798 -0.291771 0.531714 0.134065 
369 1 0.200659 0.898048 0.00583229 7.70024 -3.28586 -0.50854 0.681519 -0.630309 
336 1 0.257398 0.897434 0.0529864 0.373814 -3.25428 -0.107186 -0.517037 0.0567421 
330 1 0.250858 0.855724 0.00359487 6.64567 -3.28917 0.0220205 -1.04791 -0.19856 
335 1 0.307902 0.849727 0.0529776 0.949495 -3.34516 -0.159726 -0.16165 -0.121756 
340 1 0.371654 0.889755 0.0508714 2.65208 -3.25086 -0.782102 -0.244178 -0.299141 
337 1 0.353427 0.844327 -0.00319052 1.31878 -3.24481 0.179976 -0.422317 0.228829 
334 1 0.310562 0.891311 0.00376166 0.487783 -3.29709 0.235243 0.455732 -0.261272 
339 1 0.408038 0.839623 0.0460485 1.65365 -3.31357 0.382534 -0.544427 0.490094 
344 1 0.481125 0.875837 0.0490779 1.25966 -3.3055 -0.144592 -0.763992 0.247842 
738 1 0.422066 0.880447 0.097527 0.749345 -3.33868 0.320956 -0.220621 0.273668 
741 1 0.469708 0.831716 0.0975044 1.26657 -3.35065 -0.0932381 -0.499824 0.0293649 
338 1 0.416207 0.879628 0.996247 1.54646 -3.25428 0.57061 0.218156 0.315317 
341 1 0.463228 0.832719 0.00255613 1.70784 -3.28056 0.732411 -0.131965 -0.170358 
343 1 0.529428 0.821906 0.0532879 1.0819 -3.28723 -0.413205 0.108869 0.171755 
348 1 0.592273 0.857254 0.0503543 0.63741 -3.33992 0.500901 0.24244 0.130109 
383 1 0.546724 0.907127 0.0521522 0.66792 -3.30132 -0.239393 -0.200933 -0.426711 
342 1 0.535619 0.861754 0.000913528 0.631737 -3.31333 -0.320649 0.532278 0.119661 
385 1 0.601728 0.898061 0.996756 0.828876 -3.3725 0.050966 0.0678589 0.267715 
352 1 0.712389 0.847112 0.0473223 0.356829 -3.26133 -0.0396132 0.00976447 0.172708 
389 1 0.717547 0.88814 0.994137 1.15965 -3.22258 0.693603 -0.485004 0.577094 
387 1 0.663998 0.896591 0.043429 1.2558 -3.26811 -0.592862 0.0170252 0.611709 
346 1 0.655572 0.853616 0.000987168 0.717562 -3.31951 -0.565479 -0.368777 -0.394305 
356 1 0.825645 0.834712 0.044012 0.912665 -3.30846 0.146556 -0.0804408 0.746818 
391 1 0.772338 0.882633 0.0455466 0.744507 -3.33101 0.434665 0.445676 0.0105894 
350 1 0.772841 0.838809 0.998364 0.766197 -3.33628 -0.5199 0.137739 -0.32797 
393 1 0.836821 0.875908 0.996983 0.492263 -3.27312 -0.222017 0.32476 0.436042 
324 1 0.0037111 0.857137 0.0457747 0.787658 -3.28025 0.683178 -0.10859 0.0788173 
354 1 0.881945 0.827665 1.00015 0.287032 -3.35152 0.315638 -0.440233 -0.228529 
395 1 0.892433 0.87334 0.0475011 0.37922 -3.2835 -0.333969 -0.272423 0.0350098 
360 1 0.940801 0.825622 0.0478895 1.38877 -3.28748 -0.154162 -0.959501 0.299522 
399 1 0.958855 0.907702 0.0461612 0.546822 -3.30586 -0.152099 0.256426 0.15677 
368 1 0.0980841 0.957505 0.0543784 6.82167 -3.31732 -0.0974901 -0.169926 -0.0677855 
364 1 0.0190698 0.947329 0.0439589 7.23812 -3.25516 0.0140172 -0.361507 -0.502395 
766 1 0.10266 0.999932 0.102206 0.300822 -3.23547 0.0420092 0.281315 -0.588239 
5 1 0.106976 0.00181684 0.00442959 6.56642 -3.27936 -0.584788 -0.49956 -0.135589 
371 1 0.209245 0.942846 0.0495532 0.966407 -3.31281 -0.390724 0.404962 0.210878 
372 1 0.160946 0.994025 0.0532576 0.643083 -3.27778 -0.161543 0.537681 -0.290408 