ITEM: TIMESTEP
9250
ITEM: NUMBER OF ATOMS
4000
ITEM: BOX BOUNDS pp pp pp
1.8049945321828840e+00 3.8695005467816543e+01
-9.1735909701392360e-01 4.1417359097013090e+01
-9.2879731364527218e-01 4.1428797313644935e+01
ITEM: ATOMS id type xs ys zs c_csym c_peratom fx fy fz 
8 1 0.0970516 0.0509524 0.0507663 0.693153 -3.21265 0.611243 -0.157706 -0.498891 
2 1 0.0496729 0.0514018 1.00242 0.396457 -3.33886 -0.0609739 -0.052314 -0.328661 
3 1 0.0499401 0.00194306 0.0510133 0.286059 -3.30406 -0.164752 -0.389216 -0.0788457 
4 1 0.997914 0.0478984 0.0521586 0.474374 -3.3765 -0.000385694 0.0661874 -0.155336 
43 1 0.0510259 0.0993814 0.0521385 0.641474 -3.25975 -0.127892 0.394301 -0.869681 
1 1 0.999201 -0.00132001 1.00014 0.489711 -3.25611 -0.163341 0.572982 0.222124 
445 1 0.0992603 0.0985072 0.100599 0.378313 -3.2966 0.353475 0.664836 0.145377 
5 1 0.100123 1.00032 0.00201614 0.171834 -3.29023 0.0865602 -0.0413426 -0.0461774 
12 1 0.203906 0.0509623 0.0541796 1.98132 -3.26156 -0.497255 -0.19076 -0.577607 
51 1 0.253955 0.0979157 0.0505398 0.454409 -3.34774 -0.133803 0.278024 -0.46513 
11 1 0.251009 1.00009 0.0494863 0.597462 -3.21011 0.16805 0.0199376 -0.279092 
406 1 0.147692 0.0499529 0.0964301 1.33976 -3.28393 0.650441 -0.0136578 0.382135 
16 1 0.305358 0.0479343 0.0482066 0.732332 -3.27141 -0.152426 0.245052 -0.135569 
55 1 0.348594 0.100837 0.047758 0.578467 -3.27579 0.150459 -0.139819 0.179516 
410 1 0.257603 0.0495818 0.0967534 1.06992 -3.23875 -0.52494 0.113368 0.189232 
10 1 0.247982 0.0491024 1.00249 0.999484 -3.30242 0.0100892 0.310266 -0.0955258 
14 1 0.354572 0.0497703 -0.00497659 1.17312 -3.28779 -0.109278 -0.122038 -0.0520217 
20 1 0.400292 0.0488326 0.0469125 0.489324 -3.23406 -0.19896 0.539386 0.368324 
457 1 0.400649 0.0973626 0.097146 0.439883 -3.30613 -0.220137 -0.00119634 0.0391172 
59 1 0.448685 0.101085 0.0479374 0.523931 -3.31237 0.280245 -0.243324 -0.0940846 
418 1 0.449865 0.0486995 0.096134 0.375956 -3.30964 -0.0120271 0.246863 0.269374 
24 1 0.496005 0.0445271 0.0446934 1.54284 -3.2925 0.614385 0.474655 0.419343 
422 1 0.546554 0.0484621 0.0963991 0.412678 -3.33971 0.0181904 -0.157513 -0.0345217 
28 1 0.601089 0.0486628 0.0464987 0.170692 -3.21506 0.0218011 -0.357675 -0.061884 
461 1 0.500681 0.100065 0.0957812 0.421249 -3.28486 -0.0779005 -0.107289 -0.0338695 
25 1 0.59872 -0.00286077 -0.00457638 0.725063 -3.3058 0.208518 0.149422 -0.160798 
426 1 0.648691 0.0509348 0.0944079 0.675158 -3.23881 0.283477 -0.772721 0.458417 
27 1 0.648756 0.000602125 0.0437838 0.685824 -3.28678 0.106383 -0.0443178 0.227323 
32 1 0.701908 0.0470293 0.0475075 0.570204 -3.31481 -0.0419667 0.296012 -0.0900763 
469 1 0.69628 0.0978304 0.0954204 1.16319 -3.26922 0.407923 0.503255 0.130267 
26 1 0.653674 0.0494303 0.997609 0.442689 -3.33873 -0.500973 0.0930724 -0.126042 
36 1 0.796292 0.0514177 0.0518731 1.25757 -3.23941 0.403067 -0.0673519 -0.590347 
35 1 0.854554 1.0083 0.0470677 3.62158 -3.25428 -0.12914 -0.993169 0.67873 
473 1 0.798985 0.0989701 0.0981544 0.567432 -3.23749 -0.173813 0.387088 0.364942 
31 1 0.753308 0.000529643 0.0453693 0.664717 -3.2714 -0.481217 -0.290833 0.448318 
430 1 0.748471 0.050535 0.0989019 0.36257 -3.25058 0.21114 -0.198602 0.00474226 
401 1 -0.0018235 -0.00235949 0.101439 0.39508 -3.32371 0.0974749 0.318107 -0.0896624 
40 1 0.902926 0.0546723 0.049324 1.63481 -3.2334 -0.0440683 -0.420762 0.305642 
438 1 0.94548 0.046804 0.101308 0.932574 -3.30392 0.457162 0.400061 -0.128699 
39 1 0.947692 0.99891 0.0514373 0.351398 -3.33843 -0.11589 0.193462 0.0855636 
48 1 0.0977169 0.152021 0.0516644 0.71051 -3.35092 0.247203 -0.247233 0.104878 
44 1 -0.00213478 0.148908 0.0471027 0.972933 -3.30751 0.594537 0.0842151 0.0931071 
47 1 0.150359 0.0990696 0.0505168 0.457649 -3.34411 -0.179708 0.251931 -0.102924 
52 1 0.199197 0.149836 0.0492531 0.285721 -3.35562 0.250026 -0.08809 -0.0297963 
50 1 0.251043 0.149947 0.999242 0.343926 -3.31646 -0.127938 -0.344687 -0.0042548 
56 1 0.299819 0.148723 0.0473535 0.382091 -3.25037 0.393732 -0.0111995 -0.134802 
91 1 0.254842 0.197595 0.0480739 0.684193 -3.27669 -0.350688 0.439294 0.1288 
95 1 0.34907 0.204261 0.0468717 0.851923 -3.26572 0.241202 -0.56287 0.233921 
450 1 0.254243 0.148899 0.0981227 0.262699 -3.29574 -0.521954 -0.148306 0.0333024 
454 1 0.349994 0.146602 0.0971277 0.765524 -3.24759 0.508947 0.498625 -0.0704933 
60 1 0.399582 0.150066 0.048447 0.234288 -3.27821 -0.262368 0.0481006 -0.203939 
64 1 0.505539 0.145303 0.0489953 1.80301 -3.35705 -0.311839 0.437881 -0.545075 
97 1 0.402353 0.202071 0.000959332 0.522098 -3.28038 -0.225222 0.0224468 -0.472789 
58 1 0.452011 0.150451 -0.00133915 0.462012 -3.29258 -0.365692 -0.252545 0.422684 
63 1 0.554639 0.0942166 0.0502182 2.22395 -3.28034 -0.466948 0.562251 -0.100944 
68 1 0.597745 0.150672 0.0454416 1.00767 -3.29932 0.38325 -0.289387 0.471917 
103 1 0.551811 0.199604 0.0461922 0.98208 -3.25624 -0.372138 -0.28062 0.833878 
462 1 0.552791 0.152112 0.0953986 1.20186 -3.30434 0.1779 -0.199182 0.433249 
71 1 0.750895 0.100493 0.0500658 0.429799 -3.3187 -0.297343 0.47923 -0.21078 
67 1 0.647477 0.0988278 0.0478921 0.60304 -3.31671 -0.0627719 0.378809 -0.195358 
72 1 0.696401 0.153679 0.048612 1.11497 -3.31411 0.586529 -0.653091 0.344579 
107 1 0.652482 0.203933 0.048033 0.871693 -3.25536 -0.234178 -0.5214 0.225222 
111 1 0.750002 0.203282 0.0501689 0.460416 -3.29129 0.608721 -0.382333 -0.426034 
70 1 0.755543 0.154371 1.00083 1.29243 -3.34227 -0.338782 -0.231012 0.411192 
75 1 0.848524 0.0992782 0.0488971 0.563323 -3.32836 -0.0857658 0.15148 -0.100295 
76 1 0.801958 0.151172 0.0552665 1.93494 -3.27442 -0.470569 -0.452755 -0.629474 
513 1 0.797711 0.199264 0.0999956 0.446502 -3.31292 0.0161083 0.217716 0.550921 
74 1 0.849212 0.148131 0.998054 0.840833 -3.3126 0.125206 0.324279 0.587197 
79 1 0.9511 0.100853 0.0525113 0.994275 -3.27713 0.0673779 -0.0853735 -0.306287 
80 1 0.896015 0.150082 0.0502846 0.582377 -3.33107 0.0238139 -0.312262 0.0479469 
78 1 0.94886 0.151444 1.00074 0.386106 -3.28474 -0.0586891 -0.271306 0.0407175 
117 1 0.897842 0.197741 0.00125578 0.477453 -3.32169 -0.12096 0.371312 -0.128003 
41 1 0.999075 0.0986888 0.99887 0.549777 -3.30948 0.411002 0.130152 0.71501 
485 1 0.096545 0.197781 0.0988411 0.56045 -3.32736 0.125071 -0.0460871 0.330147 
81 1 -0.000244353 0.201757 0.998117 0.423069 -3.33143 0.143988 -0.171701 0.285609 
83 1 0.0410295 0.201989 0.052307 2.27921 -3.27919 0.511481 -0.453437 -0.0715931 
88 1 0.0973851 0.245852 0.0518997 0.987288 -3.30287 -0.0849263 0.718016 0.0953108 
82 1 0.0498969 0.252926 1.00213 0.804284 -3.23282 -0.382936 0.0830852 -0.214477 
84 1 0.998438 0.251835 0.0472657 1.81964 -3.25517 -0.123281 0.0596278 0.582172 
121 1 0.993237 0.301061 1.00261 2.12812 -3.28975 0.502558 -0.236499 0.191941 
87 1 0.147719 0.201011 0.0493312 0.511543 -3.27181 0.268618 -0.532297 0.282992 
92 1 0.200461 0.247599 0.0507274 0.504968 -3.3093 -0.00408306 0.0329414 -0.218493 
127 1 0.150842 0.301276 0.0498265 0.99604 -3.30866 -0.144795 -0.25659 0.523576 
131 1 0.247042 0.29622 0.0477247 1.07069 -3.26136 -0.21852 0.00476952 -0.283551 
489 1 0.20514 0.200345 0.098378 0.742664 -3.27692 -0.527613 -0.185106 -0.37434 
86 1 0.151747 0.245798 1.00068 1.53288 -3.24087 -0.372219 0.402245 0.165271 
96 1 0.302263 0.25205 0.0460414 0.818449 -3.30105 -0.452334 -0.00943275 0.246021 
533 1 0.296569 0.301963 0.101464 1.05043 -3.30515 -0.114991 0.016782 -0.0800331 
493 1 0.303153 0.196503 0.0969862 1.09221 -3.31604 0.118043 0.610623 0.317934 
494 1 0.348102 0.256288 0.100841 1.58023 -3.31323 -0.219286 -0.733155 -0.0324439 
99 1 0.446895 0.199193 0.0490154 0.416499 -3.25777 0.410362 -0.0153942 0.160736 
100 1 0.396264 0.253956 0.0496161 0.920409 -3.29834 0.806049 -0.475585 -0.194919 
98 1 0.452947 0.249672 -0.00212564 0.77222 -3.2987 -0.691307 0.460102 0.469104 
498 1 0.449212 0.249356 0.0999416 0.368813 -3.27398 0.0235702 0.30444 -0.281482 
537 1 0.400168 0.301361 0.0966399 0.288383 -3.30146 0.548532 0.0214576 0.373 
104 1 0.494324 0.246656 0.0508967 1.93035 -3.26098 0.413731 0.466686 -0.0808113 
143 1 0.549793 0.300009 0.0480375 0.555952 -3.36848 0.182607 -0.0773605 0.0533388 
502 1 0.546702 0.251813 0.0969638 0.771002 -3.34038 0.0698547 -0.280102 0.0413345 
108 1 0.603245 0.246996 0.0516178 1.24527 -3.26675 -0.430122 0.440381 0.113136 
541 1 0.496743 0.302262 0.0962798 0.860644 -3.31772 0.0625754 -0.385152 0.113906 
102 1 0.549207 0.247234 1.00787 3.83094 -3.26688 -0.065739 0.630899 -0.952298 
112 1 0.702208 0.250012 0.0440594 1.19068 -3.22279 -0.498255 0.141894 0.535471 
151 1 0.748568 0.297966 0.0487063 0.531021 -3.17523 0.512594 0.377867 -0.275582 
110 1 0.750376 0.250565 0.9975 0.366109 -3.28414 -0.0155864 -0.0261443 0.0924021 
109 1 0.702181 0.200148 0.999321 0.358955 -3.29616 -0.13261 0.136003 -0.159155 
149 1 0.698413 0.301181 0.00146849 0.513466 -3.30229 -0.197969 -0.0604384 -0.261615 
113 1 0.803546 0.204803 0.99534 2.20927 -3.30843 -0.261445 -0.278014 0.470237 
115 1 0.843829 0.199902 0.0505975 1.27215 -3.23036 0.43911 0.39116 -0.294346 
116 1 0.80064 0.25369 0.0512393 0.756338 -3.31713 0.146304 -0.327127 -0.000863788 
155 1 0.85214 0.300622 0.0496545 5.62543 -3.28613 0.0654843 -0.199031 0.21782 
114 1 0.851583 0.253029 1.0024 0.926514 -3.26593 -0.190959 -0.310598 0.011823 
119 1 0.946696 0.198268 0.0497405 0.316545 -3.30693 0.400243 0.232548 0.124582 
120 1 0.895783 0.246635 0.056332 1.52884 -3.28927 -0.178887 -0.129877 -0.162573 
518 1 0.950722 0.248205 0.102044 1.20633 -3.27329 -0.274798 -0.0817862 -0.21691 
525 1 0.0920268 0.296964 0.102986 2.148 -3.28608 0.895054 -0.0301213 -0.270622 
123 1 0.0514679 0.301642 0.0512475 1.40162 -3.27582 -0.29711 -0.412658 -0.0972465 
128 1 0.0980194 0.351528 0.0524724 0.836425 -3.22168 -0.11624 -0.00612827 -0.130387 
522 1 0.0474548 0.351097 0.100762 0.489785 -3.21491 0.39798 -0.12158 -0.0733437 
132 1 0.203535 0.351226 0.047303 5.59537 -3.28121 -0.313172 -0.328806 -0.0890146 
126 1 0.144161 0.35271 1.00113 1.94063 -3.28361 0.350988 -0.216018 -0.0972196 
530 1 0.242483 0.349816 0.101515 1.4663 -3.24372 0.403238 0.0202425 0.298731 
136 1 0.287771 0.346812 0.0513006 6.29287 -3.33296 0.7877 0.45596 -0.408965 
171 1 0.243288 0.404076 0.0535587 3.04825 -3.28691 0.139718 -0.167535 -0.455574 
135 1 0.350548 0.301019 0.0476848 0.90692 -3.26752 -0.656408 0.47688 -0.33784 
134 1 0.342445 0.350389 -0.00261188 1.04908 -3.37781 0.212597 0.0561331 0.633025 
534 1 0.34964 0.346869 0.094501 1.38346 -3.296 -0.294791 0.456129 0.374934 
139 1 0.450058 0.302343 0.0446065 0.80506 -3.33909 0.082945 -0.378054 0.118124 
140 1 0.40152 0.348668 0.0467894 0.476203 -3.28666 -0.373406 0.356371 -0.140436 
144 1 0.501608 0.351529 0.0490787 0.392887 -3.29844 -0.141712 -0.198618 -0.370096 
148 1 0.601026 0.349895 0.0493877 0.359285 -3.34519 -0.255436 -0.262158 -0.0593735 
185 1 0.59815 0.399446 1.00171 0.405172 -3.29516 0.264084 0.286192 -0.376113 
145 1 0.602021 0.298329 -0.00356274 0.885764 -3.32063 -0.577016 0.407814 0.51713 
542 1 0.548688 0.349616 0.101157 0.395315 -3.31673 0.318167 -0.11308 -0.182759 
147 1 0.647673 0.297273 0.0498704 0.935124 -3.31633 -0.0618596 0.302399 -0.0683165 
152 1 0.699453 0.348029 0.0494113 0.347355 -3.30829 -0.401121 0.529219 -0.0828366 
550 1 0.749757 0.349829 0.0992201 0.458244 -3.28543 0.460987 0.0197782 0.178848 
146 1 0.648199 0.352208 0.996604 0.995825 -3.28052 0.194545 -0.279792 0.658021 
156 1 0.799767 0.345443 0.0519549 1.1218 -3.30953 -0.0360282 0.478579 -0.255565 
195 1 0.84847 0.398111 0.0498472 0.373094 -3.27257 0.00498164 -0.160859 0.157195 
154 1 0.847375 0.345494 0.999306 1.21527 -3.25854 0.344676 0.42262 0.296907 
150 1 0.749088 0.350094 1.00058 0.235142 -3.34232 0.520803 0.0738548 -0.0725013 
153 1 0.798406 0.299486 0.999888 0.300582 -3.28969 -0.132995 0.0398296 -0.106788 
159 1 0.941067 0.295643 0.0570805 6.0065 -3.23349 0.481931 0.290771 -0.867313 
157 1 0.901997 0.298935 0.999388 1.09974 -3.28565 0.162696 0.538254 0.179255 
124 1 -0.00340934 0.350605 0.057418 1.93845 -3.31634 -0.160231 -0.105134 -1.09353 
160 1 0.90004 0.348751 0.0523981 0.665642 -3.30265 -0.231598 0.265977 -0.601112 
163 1 0.046713 0.403228 0.0527078 1.07781 -3.33685 0.185829 -0.0923183 -0.132756 
168 1 0.10471 0.44952 0.0521593 1.52381 -3.3355 -0.540494 -0.00994569 0.0573276 
164 1 -0.00855751 0.453359 0.0515764 1.89811 -3.26302 0.810392 -0.269465 -0.123721 
162 1 0.0506879 0.446407 1.00072 1.24038 -3.26309 -0.492884 0.513117 0.327566 
565 1 0.101707 0.399381 0.099232 0.80717 -3.3201 0.0135608 0.387307 0.0249998 
562 1 0.047428 0.450351 0.100608 0.493653 -3.353 -0.14012 0.260615 -0.381511 
167 1 0.152444 0.397321 0.0490032 1.42886 -3.33278 0.0476843 0.414026 -0.0571313 
172 1 0.196155 0.455176 0.0517154 1.87743 -3.22864 0.218347 -0.298541 0.0295179 
170 1 0.241058 0.451702 0.0019282 3.15452 -3.23811 0.844301 0.160251 -0.26979 
569 1 0.195739 0.398792 0.104422 2.01274 -3.31128 -0.0879472 0.387426 -0.114005 
573 1 0.29756 0.396873 0.0982446 1.09463 -3.33225 0.211326 0.201357 0.0195075 
175 1 0.349533 0.398081 0.0510313 1.02829 -3.29592 -0.36799 -0.205909 0.0448969 
176 1 0.301255 0.44733 0.0444568 2.55617 -3.26164 -0.0815614 0.193939 0.738569 
574 1 0.350759 0.448708 0.104213 1.86069 -3.31926 -0.651833 -0.0132837 -1.10795 
173 1 0.295141 0.400636 0.000873194 0.992112 -3.35151 -0.0370782 -0.0904855 -0.204939 
174 1 0.348739 0.449264 -0.00225448 0.649641 -3.18309 -0.0550519 0.0802725 -0.296546 
179 1 0.448931 0.400065 0.0492091 0.29662 -3.33027 0.0809696 0.0905079 -0.193196 
180 1 0.393013 0.450447 0.0467116 1.68245 -3.2723 0.031815 0.18657 0.803424 
184 1 0.5005 0.449968 0.0519699 0.527102 -3.30832 0.13135 -0.151337 -0.278337 
219 1 0.448455 0.496443 0.0503287 1.04658 -3.31797 0.219421 0.620657 0.158937 
178 1 0.443179 0.453118 0.99998 1.41937 -3.27944 0.859059 -0.320615 -0.0727796 
577 1 0.400694 0.396992 0.0992045 0.770546 -3.27705 -0.371079 0.345985 -0.074348 
217 1 0.398789 0.502394 0.00300209 0.880047 -3.2878 -0.453542 0.375593 -0.0969249 
183 1 0.549359 0.398556 0.04747 0.633921 -3.27007 -0.202847 0.16995 0.303678 
223 1 0.550422 0.497741 0.0508379 0.610731 -3.30903 0.11414 0.150321 0.215592 
188 1 0.599117 0.445805 0.054265 1.07787 -3.29757 0.212942 0.406665 -0.487726 
182 1 0.54848 0.449522 1.0016 0.381741 -3.29112 -0.0112817 0.221185 0.249617 
187 1 0.649902 0.399021 0.0485302 0.357712 -3.32072 0.200651 -0.0503293 0.274387 
192 1 0.701163 0.449129 0.0487385 0.339304 -3.3251 0.12595 0.101143 0.12289 
227 1 0.648359 0.499412 0.0527701 0.397054 -3.31669 -0.0388376 -0.145534 -0.219989 
590 1 0.746775 0.450217 0.103039 0.740255 -3.34161 -0.0281386 -0.0169958 -0.159408 
629 1 0.69738 0.499874 0.100204 0.596564 -3.31244 0.46966 -0.154047 0.184575 
191 1 0.751023 0.399888 0.0501646 0.31496 -3.29036 -0.0711473 -0.196374 -0.413181 
196 1 0.799743 0.449469 0.0495731 0.472429 -3.31165 -0.000959799 0.0896687 0.16475 
231 1 0.752517 0.49964 0.0489451 0.506852 -3.32575 0.133211 -0.277073 0.2027 
633 1 0.79925 0.498306 0.103362 0.561616 -3.30192 0.0300284 0.0453957 -0.436315 
199 1 0.946914 0.402963 0.0525155 1.00908 -3.26832 0.169357 -0.56497 -0.0678538 
561 1 -0.00148721 0.400524 0.100961 0.355852 -3.28542 -0.202755 0.184573 -0.00246008 
200 1 0.894688 0.447851 0.0521067 1.2311 -3.27494 0.125949 0.285816 -0.340617 
239 1 0.944812 0.502255 0.0452977 1.29403 -3.23326 0.480713 0.0689101 0.144977 
237 1 0.897319 0.506385 2.13573e-05 1.6836 -3.22262 -0.418794 -0.809169 -0.0580721 
597 1 0.900932 0.400655 0.102997 0.717868 -3.27731 -0.150991 -0.0319605 -0.207703 
197 1 0.898506 0.395327 1.00313 1.02213 -3.30115 -0.0447191 0.248217 -0.201996 
161 1 0.999117 0.397312 1.00404 1.01897 -3.29515 0.467057 0.310431 -0.133755 
203 1 0.0472914 0.49831 0.0494542 0.5017 -3.32655 0.0758171 0.150629 -0.0528118 
208 1 0.0975868 0.55129 0.049208 0.235947 -3.37378 -0.124527 0.0463083 -0.0241308 
245 1 0.0989678 0.60212 0.00117785 0.540393 -3.26903 0.180607 -0.265678 -0.284366 
605 1 0.0994271 0.505284 0.0988629 0.792371 -3.316 0.087284 -0.749278 0.00285059 
602 1 0.0485691 0.550036 0.10135 0.434217 -3.23506 0.130533 0.51048 -0.504871 
207 1 0.148873 0.502286 0.0498986 0.238229 -3.27113 -0.340654 0.310519 0.262837 
209 1 0.195443 0.502223 0.00235985 1.17764 -3.2644 0.1981 -0.114243 -0.508902 
212 1 0.200408 0.551199 0.045014 0.862074 -3.29809 -0.256016 -0.21916 0.640516 
247 1 0.149584 0.600677 0.0476235 0.260882 -3.31258 -0.337437 0.149995 0.359521 
206 1 0.145484 0.550833 0.996557 0.613514 -3.32282 0.00704727 -0.13506 0.360444 
211 1 0.254091 0.499669 0.0462168 1.5627 -3.30831 -0.37977 0.0646268 0.347472 
210 1 0.246539 0.550952 -0.00202164 0.381385 -3.34844 0.378252 -0.0759363 -0.403273 
213 1 0.30047 0.497694 -0.00282775 1.32419 -3.28039 -0.578014 0.264218 -0.371114 
613 1 0.2989 0.500863 0.0999694 0.394527 -3.24367 0.503801 -0.360886 0.0162817 
216 1 0.298452 0.550708 0.0494081 0.173884 -3.21133 -0.200621 0.558906 -0.197871 
215 1 0.341985 0.503774 0.0483815 6.33065 -3.25747 0.978457 -0.707268 0.264138 
614 1 0.351117 0.548737 0.101263 0.760312 -3.29664 -0.661867 0.0150088 0.00494133 
220 1 0.396646 0.550215 0.0533148 0.596189 -3.31877 0.214205 -0.132499 -0.561281 
259 1 0.450718 0.601222 0.0541357 0.473367 -3.3127 0.130292 -0.184345 -0.243685 
617 1 0.401393 0.497328 0.100708 1.05988 -3.31698 -0.377039 0.434131 -0.278629 
618 1 0.449121 0.552451 0.098922 0.624652 -3.30307 -0.00568988 -0.563795 0.1139 
218 1 0.450432 0.550782 0.00418138 0.307401 -3.30261 -0.185295 0.147366 0.21314 
224 1 0.503125 0.549657 0.0531254 0.592013 -3.30175 -0.54547 -0.0250832 -0.310291 
622 1 0.549517 0.554414 0.0998308 0.944722 -3.27576 0.480113 -0.644106 0.319692 
222 1 0.549817 0.553162 0.00217862 0.441278 -3.25552 -0.071476 -0.448221 -0.377043 
228 1 0.599056 0.550158 0.0504072 0.271731 -3.30882 0.023689 0.0157581 0.501721 
263 1 0.550742 0.601417 0.0511867 0.199725 -3.2793 -0.00670533 0.0616891 0.108005 
665 1 0.598738 0.601487 0.100269 0.244724 -3.29998 0.307452 -0.0876537 0.0114959 
261 1 0.501352 0.601292 1.003 0.388627 -3.28519 -0.378716 -0.0785848 -0.138856 
229 1 0.701829 0.49802 0.000134738 0.299617 -3.28448 -0.153563 0.207051 0.192391 
232 1 0.701919 0.546409 0.0512445 0.697971 -3.28797 -0.254362 0.320793 0.0675114 
269 1 0.698128 0.597709 0.00335823 0.763773 -3.29634 0.407781 0.4205 -0.0170936 
630 1 0.753207 0.549652 0.0971983 1.25416 -3.29772 -0.606119 -0.0314048 0.668297 
626 1 0.652012 0.549456 0.103924 0.695045 -3.30308 -0.460322 0.269288 -0.432238 
669 1 0.70014 0.601182 0.102419 0.303982 -3.31717 0.262656 -0.155824 0.175401 
235 1 0.84604 0.5006 0.0524233 1.06915 -3.24692 -0.469385 -0.153606 -0.74122 
236 1 0.799956 0.551539 0.0507899 0.461608 -3.25641 0.220117 -0.0505798 -0.137431 
271 1 0.747888 0.602355 0.05159 0.689316 -3.27361 -0.159681 -0.216764 0.17998 
634 1 0.850855 0.551822 0.10058 0.722448 -3.24681 -0.751465 -0.420295 0.255727 
204 1 0.995112 0.552515 0.0510429 0.848374 -3.32705 0.627614 -0.132882 -0.535645 
201 1 -0.0032189 0.494002 0.998916 1.66242 -3.31279 0.169277 0.731207 0.0343012 
240 1 0.89336 0.551558 0.0509891 1.45858 -3.19074 0.763669 -0.308829 -0.460599 
277 1 0.904265 0.602009 0.995495 2.10966 -3.3075 -0.349586 0.188971 -0.00691799 
243 1 0.0492148 0.603113 0.0491966 0.562032 -3.2857 -0.121723 -0.577655 0.289218 
248 1 0.0940134 0.651954 0.0502993 1.03022 -3.28996 0.314443 -0.101203 0.00711541 
242 1 0.0492878 0.648167 0.998366 0.786919 -3.19006 -0.283636 0.268931 0.72991 
283 1 0.050211 0.704383 0.0528892 1.3154 -3.32843 -0.11836 -0.0737846 -0.506689 
249 1 0.195099 0.600796 0.999212 0.570194 -3.30724 0.30888 0.0383337 -0.419989 
252 1 0.199811 0.653459 0.0454167 1.70158 -3.21499 -0.15016 -0.903281 0.805814 
287 1 0.145952 0.696035 0.0518634 1.96642 -3.30231 0.195994 0.858546 -0.0934798 
646 1 0.149126 0.648545 0.0973119 0.469389 -3.34581 0.3261 0.0938919 0.133027 
246 1 0.148623 0.651274 -0.000181376 0.311817 -3.28421 -0.126933 -0.0980615 -0.318052 
251 1 0.246994 0.600729 0.0509928 0.684028 -3.28295 0.573256 0.118946 -0.591479 
653 1 0.297671 0.601888 0.101843 0.795214 -3.27713 0.51857 -0.393152 -0.25426 
255 1 0.344122 0.601535 0.0501841 1.18076 -3.2774 0.601513 -0.0307108 0.283336 
256 1 0.298398 0.650812 0.0502916 0.315431 -3.27994 0.267631 0.268959 -0.56875 
295 1 0.352291 0.700448 0.052657 0.584525 -3.34859 -0.162869 0.0508818 -0.707843 
291 1 0.247073 0.699367 0.0533396 1.22396 -3.23219 1.0017 0.510067 -0.525705 
650 1 0.252571 0.650467 0.0968546 0.930099 -3.22885 -0.580261 -0.0720326 0.489758 
657 1 0.397173 0.599103 0.0993777 0.547362 -3.27914 0.0955118 0.463642 -0.0122069 
260 1 0.402789 0.651427 0.0489396 0.739671 -3.28256 -0.253453 -0.00479993 0.193268 
299 1 0.452656 0.699946 0.0516253 0.34437 -3.35353 0.0980476 0.301511 0.220492 
661 1 0.49927 0.599182 0.103512 0.593983 -3.23951 0.0702604 0.452887 -0.431705 
257 1 0.400992 0.601356 1.00755 1.60724 -3.32624 -0.100507 -0.0466333 -0.609875 
258 1 0.455184 0.654906 0.000688232 1.47472 -3.30896 0.0154055 -0.396727 -0.00956984 
264 1 0.501231 0.649044 0.0535235 0.603937 -3.31467 -0.215508 0.322588 -0.188972 
268 1 0.599844 0.653122 0.051337 0.363535 -3.37042 0.0628145 -0.411828 -0.209841 
303 1 0.551259 0.701794 0.0525349 0.264171 -3.30615 -0.240625 0.0499232 -0.0431677 
301 1 0.507479 0.702201 0.00153332 1.4216 -3.22606 -0.690032 0.296433 0.19178 
267 1 0.651644 0.59993 0.0545007 0.514765 -3.31189 -0.388816 -0.115567 -0.277627 
272 1 0.698253 0.649353 0.0530627 0.590131 -3.30242 0.218009 0.190452 -0.297624 
307 1 0.653143 0.699485 0.0496036 0.499888 -3.31001 -0.0723753 0.267625 0.377642 
666 1 0.647747 0.653589 0.102565 0.605072 -3.32473 0.467673 0.0116655 -0.213497 
275 1 0.8522 0.600799 0.0475746 0.888239 -3.30038 -0.296565 0.674322 -0.00397194 
670 1 0.748622 0.651084 0.10266 0.394753 -3.26399 0.240391 -0.422866 0.0457523 
276 1 0.798518 0.650422 0.0534652 1.22111 -3.32799 0.231193 -0.110701 -0.361141 
274 1 0.851637 0.649918 -0.00182302 0.822521 -3.30321 0.0766579 -0.395608 0.104991 
315 1 0.848757 0.701534 0.0490859 0.440456 -3.2604 0.249746 -0.0462026 0.384077 
674 1 0.852406 0.649844 0.0971538 0.74942 -3.29737 -0.336951 0.449212 0.251914 
673 1 0.799415 0.600388 0.0997507 0.275885 -3.34777 0.0395762 0.0796257 0.177569 
279 1 0.94379 0.600043 0.0505744 1.12797 -3.32056 0.435154 0.259811 -0.072886 
241 1 0.997574 0.599211 0.00189527 0.999674 -3.30277 -0.393844 0.239112 0.0303131 
244 1 0.000220824 0.651103 0.0539692 1.06029 -3.32608 0.00384563 -0.219882 -0.540451 
280 1 0.902163 0.653012 0.0477554 0.697468 -3.28585 -0.165745 -0.0338287 -0.0993228 
278 1 0.949792 0.654026 -0.00232134 1.08565 -3.34699 0.0520563 -0.10901 0.0254481 
288 1 0.100332 0.755349 0.0495453 1.93928 -3.19772 0.673351 -1.15107 0.273414 
284 1 0.996495 0.752919 0.0502297 1.17883 -3.28843 0.118964 0.0610513 -0.292353 
681 1 0.997247 0.703022 0.0976971 1.25459 -3.22273 -0.156492 -0.598982 0.57941 
682 1 0.041997 0.749795 0.102829 2.75155 -3.25485 1.30765 0.733049 -0.469226 
292 1 0.202719 0.751819 0.0493371 1.03366 -3.28498 -0.560117 -0.48281 -0.309153 
327 1 0.15267 0.79895 0.0497464 0.530913 -3.2972 0.197742 0.441866 -0.141937 
286 1 0.148687 0.746565 -0.00600759 2.53929 -3.33612 0.0705133 0.532752 0.680415 
329 1 0.200646 0.799439 0.999272 0.456999 -3.28848 -0.150926 0.174277 0.0339106 
729 1 0.201311 0.796735 0.10272 1.22137 -3.25598 -0.553028 0.625492 -0.158334 
293 1 0.294562 0.697878 -0.00210324 1.59353 -3.31384 0.607128 0.519535 0.841523 
296 1 0.300352 0.748841 0.0515685 0.599577 -3.3549 -0.493711 -0.0906372 -0.438474 
693 1 0.301549 0.701744 0.102617 0.675953 -3.27819 -0.445849 -0.0658391 -0.175203 
335 1 0.347058 0.80098 0.0497514 0.626042 -3.27067 0.563007 -0.424462 0.094906 
694 1 0.348849 0.747942 0.0992142 0.877087 -3.22584 0.227139 0.512251 0.526936 
290 1 0.2517 0.75245 0.997686 0.727493 -3.26181 -0.359113 -0.351412 0.778216 
294 1 0.347494 0.750489 -0.000543797 0.771184 -3.37253 0.106158 -0.435076 0.399503 
300 1 0.402501 0.753575 0.054484 1.06494 -3.27249 -0.505312 -0.635882 -0.706301 
698 1 0.44957 0.753033 0.101486 0.555669 -3.26831 0.353375 -0.455653 0.316496 
737 1 0.396969 0.797442 0.103827 0.722364 -3.3063 -0.254786 0.436345 -0.0831166 
701 1 0.500897 0.702119 0.104438 0.648349 -3.37681 -0.342259 -0.115912 -0.388141 
339 1 0.450153 0.80019 0.0532945 0.24266 -3.27209 0.3401 0.127406 -0.309643 
304 1 0.501995 0.751888 0.0522391 0.20329 -3.31487 -0.0365841 -0.391155 -0.147365 
308 1 0.602913 0.749834 0.0502271 0.315023 -3.33545 -0.110879 -0.0371279 0.288663 
345 1 0.603916 0.80221 0.00186841 0.592652 -3.30617 0.0156662 -0.168243 -0.124927 
312 1 0.704374 0.749905 0.0504434 0.538934 -3.35069 -0.22764 -0.00474036 0.113344 
710 1 0.75116 0.754128 0.100017 0.634413 -3.29243 -0.285773 -0.197723 0.266201 
709 1 0.707114 0.700242 0.100933 2.04818 -3.304 -0.700185 0.325391 -0.170433 
706 1 0.6531 0.745908 0.104956 2.33835 -3.28994 0.179167 0.529431 -0.956046 
311 1 0.751148 0.698005 0.0437937 2.70981 -3.27904 -0.171194 0.137721 0.684765 
713 1 0.796532 0.701406 0.103051 1.34898 -3.32803 0.0400597 -0.123086 -0.479931 
351 1 0.755421 0.803844 0.0495896 0.928683 -3.28693 -0.0293938 -0.360846 0.108126 
316 1 0.800782 0.75061 0.0504316 0.414371 -3.31251 -0.144771 -0.0509483 -0.191583 
355 1 0.84625 0.802802 0.0506857 0.684743 -3.29419 0.317014 -3.76145e-05 -0.072257 
314 1 0.850743 0.753476 -0.00353035 0.861668 -3.30816 -0.351186 -0.369061 0.28477 
319 1 0.954809 0.700639 0.0473864 1.32064 -3.26714 -0.611577 0.215324 -0.376105 
320 1 0.90142 0.752842 0.0481473 0.45198 -3.37701 0.132481 -0.226077 0.0617675 
357 1 0.899588 0.800581 1.00226 0.65889 -3.31166 0.113304 0.407464 -0.115248 
359 1 0.948753 0.805052 0.052949 1.054 -3.25513 0.198522 -0.480564 -0.205777 
718 1 0.950397 0.754274 0.102543 0.956552 -3.34929 -0.254576 -0.185958 -0.18615 
323 1 0.0524216 0.797317 0.0507664 1.06575 -3.20752 -0.593167 0.582343 0.145697 
321 1 0.00381832 0.798168 1.00309 1.06976 -3.35247 -0.351348 0.124518 -0.349379 
328 1 0.0983626 0.84899 0.0555248 1.7446 -3.28895 0.200829 0.301972 -0.735489 
363 1 0.0466434 0.898835 0.0525811 0.906486 -3.25452 0.720065 0.267034 -0.422799 
765 1 0.101276 0.900429 0.100514 0.773865 -3.2907 -0.426521 -0.398447 0.152356 
332 1 0.202758 0.852884 0.0456218 1.53694 -3.29084 -0.181645 -0.224113 0.374302 
326 1 0.152075 0.852255 0.99726 0.788314 -3.24325 -0.300012 -0.293504 0.866253 
769 1 0.197993 0.899184 0.102744 0.480145 -3.31414 0.113429 0.0201311 -0.292378 
330 1 0.255053 0.850758 0.996857 0.988206 -3.20918 -0.560648 -0.179267 0.14254 
331 1 0.247523 0.802169 0.0481791 0.741141 -3.29379 0.381087 -0.16071 0.148184 
336 1 0.301908 0.849635 0.046884 0.710567 -3.23219 -0.505835 0.367973 0.308345 
734 1 0.343813 0.848841 0.102034 1.21449 -3.3578 0.125684 -0.0665206 -0.00301925 
334 1 0.352636 0.848285 1.00194 0.337516 -3.3184 -0.00637688 0.17885 -0.46499 
371 1 0.250385 0.903304 0.0528767 0.984807 -3.32771 0.344061 -0.428895 -0.170023 
373 1 0.299607 0.899434 -0.00364718 1.04029 -3.32335 0.327567 0.277244 0.14159 
375 1 0.347367 0.899898 0.0476459 1.12325 -3.28097 -0.107078 -0.182014 0.136598 
773 1 0.299685 0.902226 0.101057 0.772344 -3.31909 0.0624442 -0.287702 0.0241375 
340 1 0.39946 0.849298 0.0534039 0.413465 -3.28004 -0.215309 -0.34963 -0.569002 
337 1 0.400925 0.797622 0.00486432 0.480682 -3.34076 0.166954 0.108344 -0.398045 
738 1 0.446565 0.845144 0.101809 0.948771 -3.28028 0.42471 0.253358 -0.00158177 
781 1 0.499307 0.895135 0.102283 0.9824 -3.34443 -0.161672 0.627215 -0.2636 
381 1 0.504528 0.898275 0.00187104 0.581668 -3.26735 -0.759809 -0.00902258 -0.221164 
343 1 0.549789 0.799593 0.0529307 0.645105 -3.26023 0.465735 0.0730215 -0.376043 
344 1 0.501204 0.849476 0.0520869 0.299877 -3.29717 0.108654 -0.00757823 0.355572 
348 1 0.601626 0.846297 0.0523304 0.761981 -3.26594 -0.357944 0.310008 -0.209414 
785 1 0.596436 0.901776 0.100395 0.94551 -3.26078 0.637941 0.0838348 -0.0502597 
383 1 0.552565 0.897805 0.0481922 0.498863 -3.31235 0.167544 0.136115 0.378005 
742 1 0.552243 0.853479 0.101734 1.30563 -3.29225 -0.232358 -0.930873 -0.0285796 
347 1 0.651114 0.798141 0.0535638 0.76153 -3.22511 0.268256 -0.0936572 -0.56493 
352 1 0.706215 0.85093 0.0517675 1.1002 -3.27949 -0.189656 0.321347 0.265866 
750 1 0.754573 0.850783 0.102812 0.932851 -3.27093 -0.34773 0.248116 -0.352096 
356 1 0.801733 0.856159 0.051581 0.966515 -3.31662 -0.250247 -0.222749 -0.0981017 
354 1 0.849249 0.852685 0.0015318 0.547402 -3.32373 0.204411 -0.17519 -0.264662 
391 1 0.751908 0.905094 0.0517573 0.993118 -3.29012 -0.0893918 -0.206383 -0.0725676 
324 1 0.00403818 0.84899 0.0526531 0.788603 -3.26568 -0.222592 -0.0719516 -0.138179 
360 1 0.901319 0.851429 0.0495448 0.671929 -3.28276 -0.352067 0.0893593 0.220861 
397 1 0.900572 0.899937 0.00253255 0.526085 -3.29568 -0.00540307 -0.129149 -0.000357898 
721 1 -0.00168785 0.803391 0.101004 0.797867 -3.30075 0.295336 -0.194792 0.179633 
797 1 0.89911 0.902374 0.105494 0.65292 -3.25904 0.495209 -0.595415 0.20131 
368 1 0.0993841 0.947644 0.0503386 0.336518 -3.32403 -0.00262932 0.35617 -0.154424 
7 1 0.151066 -0.00302736 0.0482732 0.628677 -3.3044 -0.10873 0.313487 0.0472054 
409 1 0.20238 0.997801 0.0932212 2.41092 -3.20236 -0.874577 0.45985 0.694403 
367 1 0.147879 0.898543 0.0486811 0.774022 -3.3294 0.401457 -0.145333 0.197547 
372 1 0.199639 0.948153 0.0522502 0.474911 -3.29212 -0.103471 -0.0426829 -0.129518 
766 1 0.148195 0.946839 0.103201 1.08739 -3.306 -0.00850093 0.780433 -0.197013 
366 1 0.151874 0.946116 1.00165 0.426949 -3.3612 -0.159533 0.252126 -0.26672 
13 1 0.302496 0.00336291 0.000701549 1.08725 -3.34747 0.043507 -0.59937 -0.27335 
15 1 0.355262 0.00129881 0.0504649 1.18931 -3.2552 -0.179703 -0.653511 -0.177926 
376 1 0.298866 0.953364 0.053531 1.29006 -3.26673 0.132469 -0.507203 -0.370894 
770 1 0.246835 0.949999 0.105199 1.7806 -3.23433 0.416471 -0.444182 -0.502981 
370 1 0.249517 0.947507 0.0025563 0.610322 -3.31538 0.465141 0.242686 -0.273739 
374 1 0.349523 0.949579 0.0051828 2.18919 -3.29585 -0.363158 -0.0647679 -0.966645 