ITEM: TIMESTEP
19750
ITEM: NUMBER OF ATOMS
4000
ITEM: BOX BOUNDS pp pp pp
3.9391273962278066e+00 3.6560872603771621e+01
-4.0480694427067085e+00 4.4548069442705454e+01
-6.6205573903481663e-01 4.1162055739035360e+01
ITEM: ATOMS id type xs ys zs c_csym c_peratom fx fy fz 
7 1 0.0915773 0.0574415 0.0507422 0.608051 -3.27468 0.486303 0.419865 0.246619 
3 1 0.0355374 0.0196849 0.0513127 0.905876 -3.28181 -0.455581 -0.190163 0.0685775 
2 1 0.038202 0.0658033 0.00466485 0.632402 -3.22482 -0.104002 0.11851 -0.884738 
372 1 0.138111 0.00884561 0.0500067 1.20217 -3.23982 0.87718 -0.0209538 -0.168185 
766 1 0.0915209 0.0117062 0.099439 1.0261 -3.20605 -0.820935 0.530529 0.456016 
11 1 0.212124 0.0435091 0.0513088 1.22765 -3.2939 -0.521467 -0.249389 -0.688603 
12 1 0.158602 0.0917143 0.0482515 0.528832 -3.33045 0.311055 0.217167 0.149954 
16 1 0.276918 0.0806007 0.0494453 1.18134 -3.20904 -0.477778 -0.699674 -0.307407 
409 1 0.15291 0.0475646 0.0979542 0.954992 -3.29721 0.33065 0.481337 0.0663287 
410 1 0.21735 0.0837827 0.0966446 1.07011 -3.27366 -0.56802 0.64235 0.605596 
413 1 0.26194 0.0395498 0.100187 1.99545 -3.26333 0.7657 -0.682404 0.318842 
15 1 0.324258 0.0284635 0.0431799 1.25209 -3.33024 -0.331499 0.191793 0.681529 
20 1 0.389901 0.0616688 0.0447356 1.02983 -3.27789 0.102405 0.0105782 0.509258 
414 1 0.334268 0.0659117 0.0990449 1.07369 -3.33494 0.205645 0.245525 -0.0442007 
417 1 0.382836 0.0183606 0.0980055 0.485779 -3.32646 0.23101 0.206193 0.0382682 
19 1 0.439371 0.015212 0.0454384 0.893807 -3.31939 -0.00639745 -0.0441944 0.372043 
24 1 0.506038 0.0479886 0.0511218 0.657979 -3.31131 0.12159 -0.06847 -0.0719955 
63 1 0.570235 0.0830335 0.0482354 0.619972 -3.28443 0.331935 -0.369659 -0.0929976 
461 1 0.516788 0.0905932 0.0992958 0.3891 -3.28797 -0.811904 -0.312742 0.0564174 
418 1 0.443305 0.0562844 0.0996697 1.03525 -3.28693 0.52309 -0.23262 -0.286442 
421 1 0.494176 0.00954333 0.0995386 1.63026 -3.32339 0.29675 -0.240328 -0.19612 
422 1 0.568102 0.0404952 0.0958945 1.32763 -3.31964 -0.532875 -0.0833122 0.47737 
28 1 0.623057 0.0320574 0.0501923 0.227449 -3.3139 0.37319 0.122751 -0.187811 
67 1 0.687859 0.0674306 0.0547723 0.590581 -3.30586 0.145006 -0.457883 -0.277121 
465 1 0.629731 0.0798679 0.0968427 2.10751 -3.22491 -0.153955 -0.935097 0.197137 
32 1 0.735603 0.0177937 0.0542173 0.755198 -3.33945 -0.0856525 -0.151213 -0.204954 
36 1 0.798262 0.0514996 0.0516846 0.842499 -3.31471 0.448079 0.224451 0.187098 
34 1 0.858509 0.0446433 1.00571 1.08979 -3.29962 -0.175373 0.0467051 0.0326515 
35 1 0.850662 1.00325 0.0506456 0.666557 -3.31524 0.28966 -0.25601 0.106036 
473 1 0.810755 0.0944081 0.0993505 0.739029 -3.31281 0.0615169 0.104529 0.0176173 
469 1 0.743834 0.0622031 0.107287 2.1385 -3.26226 -0.0744513 -0.840168 -0.914111 
430 1 0.797762 0.00761796 0.101114 1.01443 -3.35707 -0.338568 0.319963 0.204046 
33 1 0.799183 0.0030864 -0.000291729 3.57565 -3.3351 -0.665884 0.589817 0.315586 
75 1 0.869597 0.0903891 0.0498685 1.0904 -3.30951 -0.218995 -0.603193 0.290899 
4 1 0.986315 0.0701349 0.0502306 1.29938 -3.24552 -0.55845 0.458959 0.172009 
40 1 0.920846 0.0368967 0.0539632 0.654768 -3.2546 -0.68138 0.0952102 -0.356549 
401 1 0.976231 0.0277418 0.0995172 0.72538 -3.23749 -0.0514852 -0.106652 0.368596 
38 1 0.973672 0.0291803 0.00295349 0.185662 -3.28524 -0.0467313 0.172359 -0.215748 
8 1 0.0444851 0.110623 0.0542186 1.05888 -3.31466 -0.0269017 -0.199613 -0.525257 
47 1 0.113228 0.148004 0.0493623 1.595 -3.21133 -0.461936 -1.13109 0.00391758 
406 1 0.104828 0.100046 0.0975831 0.652513 -3.34607 -0.207289 -0.197768 0.243969 
445 1 0.0581287 0.149856 0.098462 1.06002 -3.32147 -0.351402 0.353768 0.214461 
52 1 0.172576 0.179729 0.0489363 0.483932 -3.20207 0.518596 0.595041 -0.0427911 
51 1 0.223832 0.128572 0.0507822 0.391138 -3.32636 -0.37763 -0.135551 -0.157209 
449 1 0.167468 0.134602 0.100482 0.459022 -3.31948 0.260342 0.0833291 -0.312392 
450 1 0.232537 0.174365 0.0978823 1.46019 -3.27732 -0.437593 -0.624572 0.00047997 
453 1 0.282865 0.117014 0.0999435 0.637108 -3.28728 0.073115 0.525178 0.0844226 
55 1 0.340229 0.109449 0.0534168 1.73688 -3.25022 0.699997 0.877336 -0.328835 
56 1 0.287979 0.159751 0.050133 1.39529 -3.31577 0.792289 0.540318 -0.114861 
60 1 0.401618 0.149629 0.050168 0.992142 -3.33998 0.134159 -0.30696 0.0414463 
454 1 0.349096 0.158423 0.0993098 1.18471 -3.30312 -0.522913 -0.654568 -0.0399904 
54 1 0.350067 0.152072 -0.00277238 2.14834 -3.30184 -0.0190929 0.16969 0.214631 
59 1 0.460826 0.0968722 0.0489353 0.964171 -3.30148 -0.279184 0.241113 0.443468 
458 1 0.463039 0.137372 0.104272 1.32168 -3.35507 0.356159 0.411204 -0.488993 
64 1 0.52536 0.131856 0.0509018 0.636659 -3.30911 -0.593893 0.245142 -0.134655 
462 1 0.580069 0.122951 0.0993838 0.636356 -3.24057 -0.0389246 0.907426 0.186991 
501 1 0.523813 0.177758 0.100122 2.27395 -3.31798 0.202343 -0.792221 0.34585 
99 1 0.471366 0.180869 0.0478598 1.2069 -3.29236 -0.0383862 0.109666 0.0297586 
62 1 0.581001 0.122152 0.000767879 0.516264 -3.2976 0.147294 0.527142 -0.0724959 
103 1 0.58601 0.166614 0.0545021 0.940685 -3.25409 -0.318137 -0.158982 -0.250317 
68 1 0.638075 0.117034 0.0494005 0.498984 -3.29599 -0.0314954 0.0920825 -0.0485861 
72 1 0.707506 0.149435 0.0532286 0.916508 -3.27421 -0.381606 0.211909 -0.682146 
505 1 0.648316 0.156881 0.099469 0.637558 -3.33544 -0.3883 0.0695191 0.0879329 
66 1 0.642436 0.159086 1.00352 0.759262 -3.30849 0.118865 -0.120571 -0.0658253 
466 1 0.699361 0.110868 0.100032 0.876233 -3.16544 -0.704129 -0.544194 0.0758549 
69 1 0.696587 0.108833 0.00442124 0.523776 -3.32601 -0.0317263 0.167983 -0.514843 
71 1 0.751801 0.100746 0.051477 0.291225 -3.2697 0.590914 0.100046 0.0323798 
76 1 0.822332 0.13459 0.0508893 0.892204 -3.35549 -0.375867 0.318591 0.0886945 
470 1 0.759645 0.143988 0.102063 0.464123 -3.22592 0.870341 -0.110933 -0.0367821 
70 1 0.764398 0.143328 0.00227798 0.555453 -3.33321 -0.442491 0.00302349 0.0487253 
113 1 0.827438 0.179247 0.99992 0.310216 -3.27487 -0.0763303 -0.389198 -0.0113263 
80 1 0.882794 0.172256 0.0484379 0.288617 -3.32388 0.192747 0.0940529 0.130533 
74 1 0.879133 0.131754 -0.00294307 1.27592 -3.33939 -0.579109 -0.628441 0.0633332 
43 1 0.997423 0.159274 0.0492659 0.301016 -3.32571 -0.00522052 0.108309 0.207007 
79 1 0.933958 0.124565 0.0502761 0.356766 -3.32293 -0.125702 -0.172999 0.130221 
402 1 0.984168 0.118434 0.102751 1.82186 -3.28018 0.434834 0.170582 -0.451653 
78 1 0.939884 0.165654 -0.00356233 0.144277 -3.26365 0.200918 0.137947 0.0530134 
446 1 0.124755 0.186828 0.101972 1.81547 -3.3134 -0.422679 0.301855 -0.236946 
48 1 0.0633399 0.195372 0.0528674 1.24931 -3.27268 -0.496761 -0.249627 -0.0790728 
83 1 0.00785289 0.245381 0.0492933 0.423449 -3.28013 -0.0223488 -0.0124586 0.377281 
87 1 0.117899 0.23351 0.0459455 1.8098 -3.26535 0.422053 -0.233934 0.246248 
486 1 0.134512 0.271569 0.0989965 0.585183 -3.32003 -0.437652 -0.092193 0.0222513 
91 1 0.238224 0.213661 0.0461829 0.955343 -3.29746 0.219994 0.206174 0.267875 
92 1 0.185762 0.264266 0.0437643 1.83572 -3.27905 0.607679 -0.0681385 0.698272 
489 1 0.188707 0.224227 0.0987384 1.68969 -3.30968 -0.686542 -0.312803 -0.281857 
490 1 0.247008 0.262018 0.0987796 1.42825 -3.19597 -0.691217 -0.450069 -0.0470847 
95 1 0.351599 0.201358 0.0539451 1.96591 -3.21409 -0.430212 -0.570414 -0.573325 
96 1 0.297846 0.252704 0.0514243 1.79112 -3.3141 0.577808 -0.118264 -0.179525 
100 1 0.417188 0.230449 0.0498165 0.860697 -3.27411 0.851552 0.726537 0.172121 
497 1 0.415339 0.190229 0.0971447 1.36172 -3.22242 -0.228271 -0.364311 0.470266 
493 1 0.295405 0.207345 0.0973647 0.520448 -3.26374 -0.251825 0.195421 0.356668 
494 1 0.362326 0.241841 0.0989775 0.543735 -3.29765 -0.0961724 -0.00616139 -0.126827 
139 1 0.487433 0.26704 0.0522543 0.467556 -3.32957 -0.363763 -0.386973 -0.0206102 
498 1 0.475725 0.22283 0.100509 0.573667 -3.30679 0.28576 0.891211 0.16488 
104 1 0.537971 0.215401 0.0529916 1.04346 -3.34191 -0.0465719 0.0830626 -0.506992 
541 1 0.544314 0.257943 0.0987128 0.601763 -3.29733 -0.241555 -0.129709 0.427249 
108 1 0.597435 0.253049 0.0489271 1.42284 -3.25666 0.241402 -0.401615 0.308962 
107 1 0.644325 0.200776 0.0508703 1.95489 -3.31033 0.742443 0.449057 -0.0395278 
509 1 0.71346 0.189668 0.0981504 0.986281 -3.26371 -0.309593 0.78153 0.0900824 
112 1 0.717046 0.233446 0.0506538 0.300544 -3.3258 0.0158572 -0.331072 0.0374285 
502 1 0.594849 0.208544 0.105437 1.50834 -3.2351 -0.372714 -0.161273 -0.687205 
115 1 0.835647 0.221748 0.0464114 0.614078 -3.27506 -0.212522 -0.237609 0.288905 
111 1 0.771965 0.186223 0.0517874 0.50997 -3.27711 -0.118347 -0.335845 -0.458035 
513 1 0.778912 0.225773 0.0974224 0.824576 -3.31572 -0.126388 0.28433 0.309517 
116 1 0.782734 0.268994 0.0490984 0.269999 -3.27355 0.0906208 0.0649547 0.107381 
517 1 0.841249 0.262928 0.0993696 0.478979 -3.35104 -0.138238 0.151409 0.295046 
44 1 0.949408 0.207609 0.0438342 1.89355 -3.20582 -0.629729 -0.372084 1.01214 
119 1 0.90039 0.252769 0.0491319 2.32935 -3.15866 -0.539728 0.494427 0.128023 
481 1 0.945645 0.255026 0.103912 3.18632 -3.19546 0.566462 -0.537911 -0.223775 
442 1 1.00118 0.200998 0.0992433 0.470029 -3.35215 0.182763 0.320029 -0.0320091 
478 1 0.89157 0.21569 0.0983612 0.646422 -3.31706 -0.504708 -0.408799 0.189501 
88 1 0.0722301 0.282734 0.0487425 0.727582 -3.28595 -0.231084 -0.0332681 0.0596 
123 1 0.0170623 0.330451 0.0472448 0.849963 -3.37223 0.182046 -0.0305851 0.315784 
482 1 0.0119844 0.285658 0.0979231 0.579772 -3.31501 0.278529 0.444149 0.136733 
128 1 0.085511 0.363746 0.051294 0.575943 -3.31051 -0.116127 -0.226506 -0.251746 
127 1 0.142803 0.31346 0.049489 1.21712 -3.33467 -0.321247 0.263672 0.148316 
526 1 0.143241 0.35917 0.0978302 0.767209 -3.29996 0.135539 -0.685219 0.255919 
132 1 0.20662 0.349648 0.050997 0.884225 -3.2523 -0.830249 0.416865 -0.0991163 
131 1 0.248095 0.305112 0.0485479 2.38296 -3.32027 0.503385 -0.868593 0.166347 
529 1 0.194543 0.307977 0.102401 0.719184 -3.31271 -0.0113124 0.323082 -0.139636 
136 1 0.322289 0.331984 0.0525795 0.943232 -3.33891 -0.526273 0.17343 -0.38192 
135 1 0.371827 0.284068 0.0488899 0.753002 -3.28941 -0.562744 -0.672715 0.270633 
133 1 0.314237 0.290752 1.00224 0.528507 -3.31372 -0.276331 0.211027 0.104601 
140 1 0.436133 0.313247 0.0547219 1.55028 -3.24279 0.655369 0.587286 -0.379411 
137 1 0.430465 0.27266 1.0009 0.822214 -3.24696 -0.417461 0.298003 0.555967 
134 1 0.384404 0.325945 1.00424 1.38871 -3.34005 -0.470549 -0.375679 -0.387918 
144 1 0.499165 0.351458 0.0537718 0.597828 -3.30998 0.344013 -0.125843 -0.413517 
141 1 0.489582 0.310958 1.00082 0.939802 -3.32756 0.251902 0.0788286 0.283596 
143 1 0.54819 0.303827 0.0504615 0.906511 -3.29538 0.0852123 0.192187 0.240746 
542 1 0.564495 0.346045 0.106321 2.51928 -3.27261 -0.663619 -0.414265 -0.527372 
142 1 0.559315 0.344308 0.00187319 0.386286 -3.34148 -0.041899 0.0509934 0.27073 
148 1 0.616525 0.335432 0.0560332 1.00332 -3.29625 0.137423 0.0224165 -0.557413 
147 1 0.670443 0.28065 0.0541795 1.59815 -3.27301 -0.310236 0.549568 -0.253372 
545 1 0.607706 0.291883 0.0989594 0.895265 -3.34909 0.406406 0.262179 0.35059 
549 1 0.680289 0.325112 0.101184 1.29039 -3.31343 -0.20564 0.234431 -0.489302 
145 1 0.609336 0.293235 0.00613762 0.908803 -3.28813 0.219081 0.447009 -0.457643 
146 1 0.675431 0.326171 1.00389 0.599611 -3.25991 -0.723764 0.120364 -0.498126 
151 1 0.731396 0.320467 0.0468358 0.917824 -3.241 0.443905 -0.0958109 0.716138 
120 1 0.844776 0.305603 0.0523004 0.833631 -3.33838 0.576889 0.274855 -0.441862 
155 1 0.794541 0.359084 0.0489461 0.384301 -3.31642 -0.329555 -0.322671 0.304209 
514 1 0.787232 0.315376 0.0979968 0.492104 -3.3487 -0.0528297 0.0208508 0.167638 
553 1 0.739969 0.370286 0.101731 1.68113 -3.27458 -0.372522 -0.728644 -0.410982 
153 1 0.788858 0.310962 0.999938 0.519327 -3.33415 0.31137 0.180883 -0.129022 
84 1 0.951401 0.293923 0.0497102 1.20709 -3.30325 0.246401 0.444705 -0.102677 
159 1 0.908905 0.346111 0.0501947 0.530237 -3.29391 -0.281991 -0.488662 0.560565 
518 1 0.901851 0.302271 0.102603 0.510858 -3.24272 -0.138834 0.376488 -0.427355 
521 1 0.964005 0.34028 0.10515 1.36592 -3.27949 -0.118788 -0.498046 -0.474044 
163 1 0.0375783 0.417075 0.0494059 0.551339 -3.28011 -0.344145 -0.476357 0.0712973 
168 1 0.100054 0.450017 0.0504192 0.443245 -3.27502 0.390701 0.233514 0.0297434 
165 1 0.0956379 0.401641 0.00349869 1.87733 -3.19046 0.470405 0.629836 -0.191607 
522 1 0.0270418 0.37469 0.100526 0.359243 -3.28144 0.0344491 -0.318351 0.0794195 
565 1 0.0934005 0.405448 0.0970523 0.762865 -3.26266 0.120336 0.529631 0.356571 
167 1 0.153312 0.398886 0.0501681 0.225292 -3.27317 0.00698859 -0.287714 -0.204845 
172 1 0.220164 0.432723 0.0490595 0.416725 -3.24985 -0.598515 -0.236069 -0.301274 
166 1 0.156226 0.438546 0.00423033 1.61343 -3.29965 0.128211 0.418242 -0.521585 
171 1 0.267617 0.384614 0.0489196 0.383924 -3.29691 0.259797 -0.164829 0.178369 
170 1 0.279363 0.422054 -0.000729338 0.437483 -3.26226 -0.108725 0.218334 0.195786 
569 1 0.205437 0.394842 0.0993794 0.727962 -3.23155 0.556637 -0.217451 -0.109642 
566 1 0.156666 0.441206 0.097572 0.613921 -3.33306 0.181523 0.378605 0.531412 
176 1 0.336505 0.416249 0.049436 0.326819 -3.32501 -0.0655728 -0.118934 0.230977 
175 1 0.386924 0.366286 0.0522497 0.424087 -3.23296 -0.590529 -0.270483 -0.378008 
180 1 0.406446 0.446835 0.0510506 2.61468 -3.29606 -0.393644 0.263435 -0.16623 
173 1 0.329135 0.374198 1.00036 0.254027 -3.3519 0.118058 -0.168224 0.220436 
179 1 0.44823 0.397224 0.053415 1.78712 -3.19092 0.469325 0.746725 -0.733133 
183 1 0.563254 0.388064 0.0511092 0.50257 -3.31775 0.163987 -0.339923 0.0158574 
184 1 0.513667 0.435509 0.0461062 0.725551 -3.31383 -0.316857 0.355037 0.462885 
181 1 0.508475 0.395325 0.00121091 0.367011 -3.28816 0.00691438 -0.350637 -0.405487 
185 1 0.620659 0.382478 0.0014754 1.06876 -3.31634 0.0935329 -0.417962 -0.0338448 
187 1 0.631425 0.420195 0.0497825 0.83125 -3.28054 -0.0872321 0.201676 -0.128193 
152 1 0.683905 0.369012 0.0507267 1.11153 -3.35572 0.00306093 0.235319 -0.0499474 
550 1 0.689343 0.418138 0.0999275 0.577165 -3.28843 0.202274 -0.366944 -0.180417 
189 1 0.691686 0.41406 1.00365 2.22305 -3.27586 -0.603766 -0.0746201 -0.0772613 
546 1 0.626487 0.379191 0.0970393 1.11945 -3.27954 0.328485 0.23925 0.444342 
156 1 0.746989 0.40937 0.0499362 0.498959 -3.25969 -0.406743 0.172941 0.124085 
195 1 0.810743 0.446646 0.0471691 0.852802 -3.24841 -0.58026 -0.596434 0.611912 
154 1 0.793982 0.399318 0.999101 1.24602 -3.25929 1.12248 0.462131 0.0589946 
593 1 0.752409 0.456808 0.0964671 1.22294 -3.3635 -0.329693 -0.508409 0.332418 
554 1 0.799314 0.405783 0.0972194 1.13839 -3.22206 0.336867 0.279708 0.1752 
160 1 0.859083 0.393186 0.0531851 0.90987 -3.30569 0.0356128 0.467023 -0.432137 
197 1 0.862412 0.439425 0.000151708 0.84204 -3.31442 0.174925 -0.683023 -0.376399 
124 1 0.973494 0.38097 0.0515445 0.31309 -3.31224 -0.0566073 0.0393561 -0.17712 
199 1 0.921944 0.429589 0.04937 0.422198 -3.31028 -0.179614 -0.225464 -0.120759 
597 1 0.869487 0.438162 0.103577 1.06102 -3.34536 -0.12074 0.17582 -0.480149 
558 1 0.917805 0.38746 0.102843 0.599205 -3.2925 -0.108538 0.0313311 -0.254636 
562 1 0.0452394 0.459158 0.100587 0.212959 -3.28132 -0.388462 -0.371518 -0.0466607 
203 1 0.0526337 0.499374 0.0511715 0.43985 -3.30725 -0.104358 -0.119726 -0.340002 
208 1 0.116134 0.534797 0.0435297 1.36219 -3.24975 -0.0420001 -0.590567 0.438324 
605 1 0.10866 0.492166 0.0999736 0.340637 -3.26732 0.541456 -0.158694 -0.221704 
205 1 0.10712 0.492335 -0.0036706 1.13178 -3.28292 0.675333 0.0459717 0.458448 
202 1 0.0571948 0.539955 0.999877 0.570899 -3.27821 -0.123473 0.699327 -0.0448271 
207 1 0.171014 0.480897 0.0515667 1.40326 -3.33794 -0.50329 0.392209 -0.484904 
212 1 0.232077 0.518287 0.0497456 0.797349 -3.29109 0.0584568 -0.0434737 -0.0174679 
209 1 0.224224 0.469395 -0.00266034 1.57622 -3.31173 0.102977 0.510373 0.247021 
211 1 0.280498 0.467323 0.0493969 0.731759 -3.27054 0.340125 0.31355 -0.224392 
206 1 0.17978 0.521796 -0.000669501 1.52475 -3.36381 -0.197756 -0.0370735 -0.338555 
215 1 0.349565 0.498302 0.0481846 0.855593 -3.32478 0.250872 0.185328 -0.047386 
220 1 0.411346 0.537945 0.0487817 0.693808 -3.27163 0.131794 -0.39115 -0.643359 
617 1 0.402583 0.496676 0.102801 2.40757 -3.27879 0.256659 -0.662383 -0.57815 
614 1 0.358971 0.543217 0.0968515 0.489523 -3.24642 -0.460872 0.343052 0.284687 
174 1 0.34334 0.45553 1.00476 2.22054 -3.27903 0.0359931 0.392515 -0.492113 
213 1 0.287367 0.506634 0.996326 1.29088 -3.28246 0.811328 0.171511 0.956275 
214 1 0.356849 0.547686 0.994971 1.40612 -3.21172 -0.572944 -1.04887 0.422496 
219 1 0.458924 0.488264 0.0453578 1.48044 -3.3102 0.319724 -0.141699 0.364661 
621 1 0.471585 0.527547 0.0948009 0.943155 -3.30069 0.00537046 -0.316044 0.295771 
582 1 0.527845 0.475688 0.0979417 1.66459 -3.29755 -0.826389 0.208254 0.153285 
223 1 0.525746 0.521251 0.0445305 0.711059 -3.23934 -0.232738 -0.0563264 0.782339 
221 1 0.519282 0.480927 -0.00390125 0.1412 -3.28486 -0.0974574 -0.341281 0.172869 
191 1 0.68734 0.460511 0.044944 2.67108 -3.28987 0.806648 -0.247961 0.395247 
188 1 0.577237 0.471143 0.0488317 0.217067 -3.31483 0.478233 0.0474721 -0.354408 
586 1 0.58598 0.515656 0.0988326 0.383079 -3.27897 -0.441399 -0.234866 -0.271878 
192 1 0.641165 0.508359 0.0500025 0.43592 -3.27215 -0.302638 -0.155279 -0.334594 
231 1 0.704361 0.542388 0.0472601 0.587541 -3.33223 0.396723 0.349292 0.121412 
589 1 0.638287 0.461778 0.0977763 1.14281 -3.26629 -0.327372 0.615478 0.200124 
590 1 0.696774 0.501904 0.10023 0.424329 -3.2998 0.274229 -0.151235 -0.15169 
186 1 0.632766 0.469988 0.998289 1.63754 -3.30828 -0.380665 -0.381483 -0.209481 
225 1 0.577137 0.518074 0.998637 1.45994 -3.20305 1.29118 -0.14623 -0.203749 
190 1 0.702129 0.49985 -0.000491264 0.519257 -3.30538 0.0669865 0.228359 -0.183658 
196 1 0.756146 0.494639 0.0494124 0.305829 -3.32085 -0.120847 -0.0129852 -0.0750897 
194 1 0.812215 0.485781 0.000659128 0.542525 -3.26102 0.502222 0.725863 -0.0605739 
235 1 0.821364 0.527752 0.0528509 0.825487 -3.29784 -0.0609228 0.432169 -0.700474 
594 1 0.818458 0.489952 0.0989844 0.660599 -3.27407 -0.373747 -0.745723 0.300117 
633 1 0.759798 0.537745 0.100006 0.531747 -3.33855 0.0199205 0.05467 -0.246235 
200 1 0.874569 0.477559 0.0505257 0.796452 -3.27393 0.469196 0.46687 -0.0803837 
164 1 0.98549 0.462983 0.0492348 0.840208 -3.29417 0.414351 0.483734 -0.185727 
239 1 0.933188 0.516975 0.0506698 0.917793 -3.27634 0.35668 -0.540956 -0.0613779 
601 1 0.998453 0.510207 0.100844 1.02551 -3.24649 -0.952294 -0.599278 -0.095073 
201 1 0.994979 0.505734 1.00311 1.29884 -3.28183 -0.200226 0.100947 -0.0738561 
198 1 0.933578 0.471316 -0.00365646 1.46811 -3.28796 -0.599705 -0.17453 0.553909 
637 1 0.880784 0.524214 0.0988621 0.496017 -3.17729 -0.230839 -0.488399 0.416165 
598 1 0.93593 0.47369 0.0992448 0.960105 -3.33171 -0.520659 0.161414 0.230703 
204 1 -0.00301243 0.549463 0.0491162 0.706057 -3.34623 0.65023 0.298405 0.102289 
243 1 0.0655266 0.584537 0.0460635 0.574407 -3.28926 -0.509747 -0.670572 0.19413 
641 1 0.00479222 0.58842 0.102222 1.24832 -3.29871 0.853072 0.558334 -0.0582913 
244 1 0.0167565 0.631953 0.0472558 0.661673 -3.31424 -0.0137158 0.225283 0.253667 
242 1 0.072661 0.625637 -0.00316712 0.326674 -3.25209 -0.453995 -0.285495 -0.0112789 
248 1 0.127691 0.617316 0.0496144 0.75813 -3.26531 0.906225 0.0704976 -0.226011 
642 1 0.0754896 0.621619 0.0982326 0.576033 -3.34321 -0.224423 0.15119 0.613084 
245 1 0.122738 0.577678 -0.00506462 0.847727 -3.31863 0.0804269 -0.034177 0.196216 
247 1 0.177831 0.566045 0.0430776 1.58254 -3.25836 0.633285 0.535263 0.283107 
251 1 0.2441 0.599019 0.0464079 0.901003 -3.29922 0.478517 0.0884185 0.156752 
249 1 0.190361 0.6117 -0.00529405 1.44088 -3.2912 -0.587726 -0.91671 0.223172 
210 1 0.243006 0.560364 -0.00258887 0.879588 -3.28616 -0.629347 -0.553382 0.0248049 
646 1 0.189365 0.606349 0.0995583 0.675516 -3.32977 -0.0259238 0.366614 -0.267635 
216 1 0.301209 0.54835 0.0455765 1.09766 -3.36115 0.0706315 0.300115 0.145429 
255 1 0.365721 0.585788 0.047534 0.610828 -3.30875 -0.438535 0.314418 0.360033 
653 1 0.305263 0.592425 0.100403 0.745736 -3.30889 0.176279 -0.0215812 -0.399812 
256 1 0.311956 0.632226 0.0466465 0.988674 -3.32366 0.104063 0.195488 0.223219 
253 1 0.307313 0.592217 0.995879 0.393524 -3.23493 -0.193537 0.103011 0.211296 
254 1 0.363797 0.629358 -0.00722142 1.51323 -3.26503 0.775594 0.527676 0.561887 
259 1 0.426228 0.625091 0.045923 0.742056 -3.3523 -0.472888 -0.243816 0.0357221 
224 1 0.480737 0.571099 0.0456629 0.891439 -3.26926 -0.459227 0.294937 -0.0856504 
228 1 0.546559 0.608164 0.0512305 1.20356 -3.26186 -0.505358 -0.428927 -0.436222 
625 1 0.528342 0.567197 0.0969332 1.70862 -3.28229 0.564286 -0.209608 0.364529 
622 1 0.484577 0.615817 0.0964282 0.859107 -3.25128 -0.541192 -0.159556 0.185465 
227 1 0.589669 0.5564 0.0496307 0.563974 -3.32206 0.0399818 0.217091 -0.0477528 
629 1 0.649117 0.549242 0.0973755 0.560136 -3.2821 0.276407 0.423503 0.186942 
232 1 0.653297 0.591843 0.0515153 0.818093 -3.33921 0.0494065 0.173802 -0.449381 
626 1 0.598514 0.601284 0.103255 1.28909 -3.27768 -0.526236 -0.320047 -0.275501 
271 1 0.715475 0.629824 0.0475348 1.08017 -3.33544 0.334195 -0.0881309 0.406471 
236 1 0.765952 0.581608 0.0525006 1.3375 -3.28977 0.307004 -0.423562 -0.334111 
275 1 0.836658 0.610497 0.0524554 1.58239 -3.25713 -0.206444 0.709074 -0.34189 
240 1 0.883933 0.56351 0.0529461 0.479795 -3.27038 0.255063 0.263239 -0.685714 
279 1 0.949427 0.601782 0.0541715 1.05071 -3.28453 -0.128474 -0.431347 -0.583204 
638 1 0.942006 0.557663 0.101523 0.357014 -3.22987 0.197194 -0.103775 0.112208 
677 1 0.891938 0.60359 0.0992242 1.2 -3.23318 0.533458 0.618076 0.524674 
283 1 0.0839418 0.665712 0.0524324 0.744916 -3.29117 -0.0116756 0.0241055 -0.417972 
284 1 0.0322612 0.713474 0.0524919 0.722123 -3.28594 0.244039 0.367934 -0.388219 
285 1 0.0861153 0.708307 0.00242398 1.01288 -3.33431 0.159383 -0.111413 -0.540985 
685 1 0.141872 0.659479 0.101948 1.07394 -3.27332 -0.271037 -0.56468 -0.451785 
246 1 0.136915 0.654959 0.999225 0.946014 -3.2973 0.467044 0.797178 -0.116074 
682 1 0.0941963 0.706765 0.0985966 0.35759 -3.32148 -0.182699 0.202466 0.0641548 
281 1 0.0228091 0.67328 0.000352197 0.494369 -3.33151 0.0674895 0.0532832 -0.128715 
252 1 0.199922 0.646846 0.0495487 0.775218 -3.34667 -0.0969542 0.142441 -0.0398289 
287 1 0.153726 0.696985 0.0479834 1.04828 -3.24676 -0.80417 -0.214545 0.0538898 
289 1 0.202923 0.690061 0.99648 0.509744 -3.22085 -0.0902457 -0.336959 0.315878 
250 1 0.257441 0.639334 0.997943 1.09132 -3.26828 0.281758 0.372935 -0.0808193 
650 1 0.2604 0.641218 0.101273 1.54182 -3.30846 -0.526752 0.0724529 -0.31648 
291 1 0.263686 0.684775 0.0446657 0.764756 -3.29178 -0.275245 -0.324101 0.472091 
290 1 0.265317 0.726384 0.999195 0.578809 -3.28381 0.221831 0.777739 -0.15335 
295 1 0.322688 0.723129 0.0481406 0.383104 -3.28667 -0.0272554 0.109717 0.289241 
260 1 0.368421 0.674119 0.0440754 1.95772 -3.31204 0.783556 -0.32149 0.444225 
658 1 0.386777 0.715153 0.0954992 0.717016 -3.35292 -0.23183 -0.0216253 0.231605 
293 1 0.316525 0.679582 -0.00353104 0.453933 -3.25866 0.226204 -0.209988 -0.39774 
264 1 0.442588 0.706478 0.0468105 0.850925 -3.34648 -0.337878 0.0465255 0.143292 
263 1 0.490561 0.657218 0.0502753 0.667061 -3.31057 0.51263 0.225418 -0.546055 
258 1 0.432876 0.665453 -0.0052607 0.820021 -3.34142 -0.277902 -0.10441 0.648821 
262 1 0.494747 0.702068 0.997153 0.570759 -3.28369 0.324242 0.308658 0.533746 
268 1 0.557375 0.695811 0.0466882 0.812668 -3.30435 -0.654735 -0.590471 -0.157737 
265 1 0.550262 0.654133 0.998887 0.630102 -3.32521 -0.152929 -0.375667 0.182461 
662 1 0.499845 0.700272 0.0968106 0.586501 -3.24613 -0.402923 -0.199242 0.119925 
267 1 0.603712 0.642532 0.0496876 0.310873 -3.25802 0.402095 0.275363 -0.245945 
266 1 0.616261 0.685314 -0.00228726 0.616771 -3.29661 -0.314389 0.1471 -0.132631 
272 1 0.665512 0.676891 0.0478841 0.734931 -3.27763 0.398569 0.329712 0.209499 
709 1 0.679137 0.718878 0.0980352 0.7384 -3.30034 -0.130803 0.0976423 0.157033 
307 1 0.618653 0.729461 0.0501292 0.507888 -3.22945 0.352945 -0.19109 -0.221957 
270 1 0.729569 0.670785 0.00252346 0.57482 -3.33254 -0.293673 0.134108 -0.233726 
311 1 0.735155 0.712947 0.0490218 0.276008 -3.32144 0.341696 -0.355395 0.170299 
276 1 0.78729 0.662499 0.0527494 0.712564 -3.35094 -0.145492 0.134952 -0.207502 
315 1 0.850768 0.699755 0.049627 0.272678 -3.30925 -0.0847999 -0.00797366 0.217672 
313 1 0.793212 0.707372 0.999395 0.396353 -3.31408 0.240527 0.0289507 0.258079 
274 1 0.844849 0.658937 0.00404539 0.705356 -3.2844 -0.465215 -0.527625 -0.349679 
280 1 0.896345 0.650053 0.0541706 0.943337 -3.31514 0.491365 0.00011524 -0.376669 
319 1 0.964917 0.684124 0.0503985 0.363966 -3.32592 -0.226403 -0.336422 -0.104371 
278 1 0.952567 0.643143 0.000405648 0.658805 -3.30653 0.517987 0.141565 0.138854 
317 1 0.905113 0.692446 -0.0012107 0.370499 -3.27214 0.394373 0.217723 0.0632414 
288 1 0.101518 0.7465 0.0482783 1.66279 -3.31763 0.00121981 0.333076 -0.0826145 
323 1 0.0495144 0.797748 0.0485702 0.664483 -3.22924 0.121762 0.405063 0.250432 
721 1 0.0435301 0.757551 0.0956287 1.08846 -3.27733 -0.172759 -0.105645 0.372366 
325 1 0.104546 0.79144 0.0028897 1.23589 -3.23959 0.573207 0.253528 -0.547169 
292 1 0.210547 0.733274 0.0457464 0.710786 -3.2685 0.536028 0.772488 0.535326 
327 1 0.161039 0.789679 0.0483739 1.29619 -3.32556 0.254235 -0.280452 0.485244 
690 1 0.220444 0.778637 0.100115 0.523991 -3.33955 0.311324 0.308866 -0.0125954 
286 1 0.156699 0.737194 -0.00356339 2.26323 -3.26132 -0.341646 0.574042 0.216068 
296 1 0.278165 0.7734 0.0491578 0.342872 -3.31691 -0.58209 -0.580422 0.0332921 
333 1 0.284016 0.815207 -0.00044864 0.517938 -3.30887 -0.32946 -0.0124502 -0.0654348 
331 1 0.23153 0.822915 0.0514145 1.21376 -3.32453 -0.565896 -0.255577 -0.317959 
694 1 0.285731 0.816975 0.098112 0.369548 -3.26267 -0.273686 -0.360103 0.286043 
300 1 0.33836 0.808918 0.0492903 0.246449 -3.24384 0.2106 0.0174969 0.121368 
299 1 0.38841 0.757926 0.0482321 0.19612 -3.33845 0.368311 0.047326 0.378952 
698 1 0.399173 0.799648 0.098075 0.387834 -3.31465 0.343681 -0.0311748 -0.341576 
294 1 0.333932 0.764904 -0.000588046 0.319135 -3.28151 -0.687198 -0.113959 -0.0173591 
298 1 0.394575 0.800017 0.00129998 0.353739 -3.25856 0.105947 0.442065 -0.366997 
304 1 0.453485 0.795313 0.0457838 0.674685 -3.29994 0.00689529 -0.150501 0.508553 
701 1 0.451365 0.750174 0.101037 0.826893 -3.31576 -0.172677 -0.164714 -0.241878 
301 1 0.443943 0.751544 -0.00227921 0.340948 -3.32625 0.259133 0.0669773 -0.0568506 
303 1 0.500448 0.747462 0.0451821 1.88408 -3.29771 0.130502 -0.420807 0.415471 
702 1 0.509372 0.786666 0.0969353 0.721333 -3.32552 0.192366 0.207318 0.0754804 
705 1 0.558101 0.734433 0.095137 1.45605 -3.22469 0.270736 0.778871 0.209741 
305 1 0.562061 0.738539 1.0012 0.764838 -3.31518 0.172576 -0.494706 -0.339438 
302 1 0.514368 0.786988 -0.00119618 0.363965 -3.32193 -0.252546 -0.0173802 -0.191754 
308 1 0.572064 0.777284 0.0479234 0.337463 -3.3075 -0.160048 0.305433 0.325807 
312 1 0.687698 0.759013 0.0517143 1.67186 -3.23335 -0.131944 0.791567 -0.363773 
347 1 0.638752 0.812399 0.0490602 0.448594 -3.3194 0.135558 -0.146635 0.0683341 
706 1 0.627796 0.766472 0.0981508 1.24541 -3.32609 0.0906972 0.76141 0.22051 
349 1 0.696264 0.809624 0.000365333 1.38224 -3.26503 -0.505524 -0.970103 -0.0221061 
745 1 0.576425 0.81832 0.0997496 0.658082 -3.36134 0.535756 0.179815 -0.0389837 
749 1 0.686645 0.807319 0.100191 2.05327 -3.30845 0.664637 -0.246438 0.247337 
351 1 0.74554 0.79897 0.054665 2.51796 -3.33433 0.356684 0.00425346 -0.380246 
316 1 0.801802 0.747573 0.0519301 0.361344 -3.32741 -0.251328 0.302834 -0.129554 
714 1 0.860884 0.741277 0.098944 0.300459 -3.24297 -0.527214 -0.204302 0.152954 
353 1 0.812365 0.789218 0.997991 0.774052 -3.32808 -0.364756 -0.190466 0.121183 
314 1 0.861101 0.741887 0.00317575 1.14339 -3.30549 -0.459034 -0.124294 -0.681618 
355 1 0.869522 0.781634 0.0513164 0.518852 -3.27251 0.0298236 0.2664 -0.5269 
320 1 0.916589 0.733789 0.0493058 0.238677 -3.30609 0.500445 -0.194798 0.0512219 
359 1 0.983293 0.766991 0.0487039 0.318608 -3.27806 -0.349122 -0.529687 -0.258813 
757 1 0.9253 0.773308 0.0985512 0.346232 -3.27331 0.292757 0.202222 0.321291 
328 1 0.108429 0.836631 0.0481939 1.17854 -3.28767 0.342522 -0.0668226 0.558881 
363 1 0.0609506 0.883064 0.0483699 0.688164 -3.25661 0.147382 0.415463 0.290322 
365 1 0.121205 0.876539 1.00303 1.74288 -3.24818 0.157641 0.648977 -0.526076 
332 1 0.180721 0.869709 0.0513231 1.71945 -3.27705 -0.273819 -0.0211298 -0.231793 
330 1 0.228065 0.867984 0.994381 2.06705 -3.29692 0.249892 -0.116941 0.477899 
336 1 0.234152 0.910166 0.0437123 2.09118 -3.3032 0.573034 0.165775 0.408706 
326 1 0.167219 0.831303 1.0022 0.699579 -3.30348 0.353925 -0.537234 -0.376398 
335 1 0.287353 0.863065 0.0510112 1.80999 -3.30478 -0.0960339 -0.305174 -0.408862 
340 1 0.356224 0.894742 0.0475526 0.343141 -3.32243 -0.0200742 0.34152 0.224988 
337 1 0.34551 0.850287 1.00368 0.974935 -3.28021 -0.0525953 0.207139 -0.654012 
339 1 0.401875 0.84397 0.0479902 0.263449 -3.24418 0.478642 -0.0712108 0.309601 
738 1 0.412095 0.887944 0.0977257 0.582672 -3.30205 -0.139904 -0.026782 0.132011 
334 1 0.295828 0.899795 0.998795 0.852337 -3.33473 0.230752 0.288397 0.028862 
344 1 0.465786 0.878776 0.0502146 1.28828 -3.33952 0.60145 0.0159957 -0.382923 
343 1 0.521248 0.828455 0.0469213 0.575887 -3.29438 -0.395706 -0.0951934 0.96304 
383 1 0.53529 0.910003 0.0449334 2.68161 -3.30481 -0.023832 0.265842 0.663222 
742 1 0.535546 0.871039 0.100316 1.74961 -3.33208 -0.304118 -0.608952 -0.467785 
348 1 0.590097 0.86157 0.0477264 0.931729 -3.287 -0.0231389 0.378896 0.628203 
352 1 0.702703 0.852021 0.0490435 0.669728 -3.26673 -0.395388 -0.541019 0.0656935 
387 1 0.651407 0.904059 0.0464436 2.51284 -3.2923 -0.336258 -0.829302 0.169304 