ITEM: TIMESTEP
7750
ITEM: NUMBER OF ATOMS
4000
ITEM: BOX BOUNDS pp pp pp
1.5001184087478951e+00 3.8999881591251530e+01
-7.5918470533541660e-01 4.1259184705334867e+01
-7.4122380108044805e-01 4.1241223801080103e+01
ITEM: ATOMS id type xs ys zs c_csym c_peratom fx fy fz 
8 1 0.102495 0.0461253 0.0470003 1.09772 -3.33635 -0.49901 0.496198 0.106045 
2 1 0.0459298 0.053811 -0.000750006 1.01174 -3.31643 0.683002 -0.460091 0.17589 
3 1 0.0504695 -0.00278146 0.0484515 0.368674 -3.33188 -0.152157 0.145806 -0.110352 
401 1 -0.00024547 -0.00348958 0.0952372 0.782978 -3.26639 -0.123668 0.482564 0.087532 
12 1 0.201795 0.0530356 0.0494149 0.771952 -3.31307 0.100742 -0.791683 -0.28428 
6 1 0.152787 0.0479252 -0.0045205 1.38173 -3.23933 -0.640861 0.259137 0.894296 
47 1 0.148606 0.0953353 0.0536444 2.59223 -3.26789 -0.141605 0.543424 -0.611562 
7 1 0.150942 -0.00245978 0.0477211 0.345607 -3.29991 0.251641 0.252273 0.044136 
49 1 0.196278 0.101173 -0.00026544 0.983761 -3.38463 0.214885 0.0733562 -0.0109443 
16 1 0.297157 0.0561729 0.0531901 1.5457 -3.27793 0.230437 -0.699306 -0.461574 
51 1 0.248017 0.101791 0.0472091 0.40911 -3.25766 0.178378 0.0412145 0.125524 
11 1 0.253137 0.00134634 0.0524747 0.498408 -3.3353 -0.00598583 0.0870857 -0.450856 
13 1 0.304137 0.0022341 0.000540962 0.654749 -3.30317 -0.0273121 0.17398 0.321484 
20 1 0.404334 0.0531171 0.0520324 1.27709 -3.29665 -0.510219 -0.439843 -0.0751438 
457 1 0.398 0.10056 0.0976428 0.469142 -3.27262 -0.0593604 -0.30317 0.339127 
417 1 0.401697 0.00273024 0.103297 0.510755 -3.33676 0.0324272 -0.100562 -0.338668 
55 1 0.347256 0.102653 0.051029 0.378815 -3.28354 0.367513 -0.269224 -0.197792 
15 1 0.352603 0.000286787 0.050971 0.398803 -3.34902 -0.083033 0.208024 0.13938 
414 1 0.349623 0.0513099 0.0993473 0.236318 -3.33519 -0.0496539 -0.0726579 0.109078 
57 1 0.399491 0.101808 0.00213323 0.450673 -3.24984 -0.294783 0.105783 0.254642 
24 1 0.498471 0.0527692 0.0516614 0.787192 -3.27226 -0.0323376 -0.220825 -0.38206 
59 1 0.451264 0.100563 0.0480607 1.09398 -3.27216 0.0868562 0.300209 0.347957 
63 1 0.54848 0.0991493 0.049985 0.768989 -3.30139 0.273496 0.100105 0.133686 
422 1 0.547943 0.0452076 0.100524 1.47667 -3.28165 0.493417 0.654811 0.076298 
22 1 0.549963 0.0534321 0.00295066 0.965147 -3.30359 0.203544 -0.101438 -0.450348 
28 1 0.601315 0.053067 0.0513152 0.67232 -3.35772 -0.0479237 -0.404901 -0.101466 
426 1 0.649546 0.0510074 0.101628 0.307223 -3.32372 0.28364 -0.0873855 -0.0994011 
27 1 0.651845 0.000539119 0.0475627 0.379832 -3.31984 -0.0526182 -0.026944 0.274781 
465 1 0.598435 0.0984862 0.101137 0.521144 -3.30506 0.249723 0.0454671 -0.382846 
32 1 0.700742 0.0483327 0.0512835 0.287794 -3.33321 0.0985106 0.351605 0.287169 
30 1 0.750006 0.0495553 0.00339589 0.274696 -3.25203 0.0253479 0.315141 -0.291424 
71 1 0.750979 0.103286 0.0543211 1.21277 -3.28 -0.208181 -0.71239 -0.263067 
36 1 0.801124 0.0484814 0.0493516 0.694741 -3.30021 -0.0240298 0.488907 0.641375 
75 1 0.851368 0.102062 0.0498623 0.600645 -3.3559 0.141332 -0.0833978 0.226189 
35 1 0.850873 0.00219986 0.0489971 0.400007 -3.30777 -0.110861 -0.537006 0.134626 
473 1 0.801515 0.101692 0.101225 0.456975 -3.3413 0.142204 -0.281606 -0.26318 
4 1 0.997623 0.0514987 0.0475957 0.405019 -3.33543 0.221683 -0.341829 0.370744 
40 1 0.900245 0.0511503 0.0502962 0.395481 -3.27959 0.253886 -0.114527 0.196084 
438 1 0.949947 0.0493094 0.0982866 0.263378 -3.3324 -0.150538 -0.041739 0.0980491 
43 1 0.0481196 0.102771 0.0483666 0.56459 -3.31092 0.223168 -0.495691 -0.130109 
48 1 0.0981107 0.150309 0.0494972 0.305347 -3.27954 -0.0835133 -0.108693 -0.234358 
485 1 0.094671 0.200265 0.0973119 1.02438 -3.28568 0.544279 -0.0701549 0.113368 
442 1 0.0505497 0.148772 0.10139 0.794341 -3.27103 -0.321454 0.267522 -0.185108 
45 1 0.103334 0.102885 -0.000142433 1.31858 -3.35596 0.0135208 -0.431947 0.302209 
42 1 0.0500859 0.149758 -4.12599e-06 0.304028 -3.35955 -0.219191 0.0607448 -0.157181 
52 1 0.199897 0.148062 0.0495628 0.571719 -3.24925 -0.124005 0.191238 -0.174235 
446 1 0.148807 0.149973 0.0939534 1.40643 -3.28648 0.0284849 -0.195201 0.985986 
87 1 0.150158 0.194861 0.0491805 1.6555 -3.29012 0.0579247 0.923334 -0.0358831 
46 1 0.151081 0.153479 -0.00392201 1.88872 -3.28412 -0.0393161 -0.340909 0.419558 
89 1 0.201985 0.200798 0.00098824 0.535239 -3.29292 -0.516816 0.359975 0.00273291 
56 1 0.298301 0.149675 0.0489294 0.437619 -3.27971 0.086921 0.34543 0.213012 
91 1 0.252362 0.198836 0.0529253 1.26065 -3.3493 -0.254711 0.431379 -0.209263 
93 1 0.300226 0.200158 -0.00121256 0.336572 -3.28795 -0.0364568 0.185776 0.489523 
60 1 0.399256 0.151312 0.0501628 0.234707 -3.30223 0.345277 0.00202493 -0.330773 
95 1 0.349834 0.203014 0.0504949 0.594027 -3.27459 -0.114861 -0.365145 -0.38299 
64 1 0.503116 0.147097 0.0559757 1.44739 -3.31509 -0.268908 0.361461 -0.484657 
99 1 0.456482 0.201425 0.0503284 1.47124 -3.34589 -0.395962 -0.350027 0.161977 
61 1 0.495452 0.101477 -0.00213357 1.3286 -3.33451 0.548055 0.00967625 0.0505217 
62 1 0.551679 0.148358 0.00329283 0.615906 -3.38138 -0.246911 0.0433064 -0.268144 
101 1 0.504251 0.201924 0.00240069 0.891554 -3.30668 -0.0779102 -0.711736 -0.321264 
67 1 0.651225 0.101317 0.0511468 0.323987 -3.28636 0.0779243 -0.461294 -0.0809574 
68 1 0.602554 0.147518 0.0541907 0.631163 -3.31294 -0.541271 0.221316 -0.363154 
466 1 0.651462 0.148524 0.101296 0.393904 -3.32374 -0.118262 0.356694 -0.159861 
72 1 0.699067 0.15054 0.0482488 0.657318 -3.29151 0.014 0.0691838 0.571891 
76 1 0.79959 0.15017 0.0491805 0.541776 -3.27011 0.405574 0.34626 0.435039 
474 1 0.850052 0.15212 0.0995473 0.436669 -3.33055 -0.172433 -0.180832 0.047535 
113 1 0.801292 0.201755 0.000664977 0.377957 -3.35927 -0.129988 -0.168692 0.036449 
44 1 0.99816 0.150222 0.0528917 0.826141 -3.30857 -0.051061 -0.0209656 -0.217189 
79 1 0.946508 0.10101 0.0480673 0.822375 -3.31622 0.141948 -0.0336073 0.509473 
80 1 0.904276 0.155342 0.0503736 1.54797 -3.26108 -0.356042 -0.26916 0.461407 
119 1 0.953767 0.202321 0.0467375 1.45535 -3.24211 0.247366 0.202148 1.00728 
78 1 0.950419 0.153072 0.00133335 0.58111 -3.29257 0.392005 -0.118116 -0.362615 
478 1 0.9484 0.14506 0.101499 1.72756 -3.29568 -0.210248 0.564334 -0.129007 
117 1 0.903897 0.205471 0.00474783 1.35519 -3.24043 -0.945508 -0.273016 -0.7326 
81 1 1.00303 0.201304 -0.00251718 0.742979 -3.2851 -0.184809 -0.288983 0.061889 
83 1 0.0441317 0.200194 0.0521851 1.51906 -3.27346 0.269738 -0.0595197 -0.387341 
88 1 0.0978479 0.247525 0.0475554 0.839165 -3.35789 0.232261 0.254433 0.274766 
525 1 0.0967042 0.303845 0.102 0.921528 -3.29023 0.470012 -0.132742 -0.24658 
123 1 0.0523971 0.3017 0.0506704 0.624323 -3.25577 -0.191536 -0.140236 -0.368943 
481 1 -0.000419631 0.20297 0.102886 0.879013 -3.30369 -0.575514 -0.201655 -0.500508 
85 1 0.0988038 0.200553 0.00171006 1.01013 -3.29522 0.0128902 -0.225673 -0.151789 
82 1 0.0523322 0.250009 -0.00485941 1.43113 -3.21977 -0.14176 0.246456 0.886171 
92 1 0.196811 0.25141 0.0505005 0.543132 -3.33001 0.174621 -0.382199 -0.112903 
127 1 0.149429 0.299586 0.0450749 1.56465 -3.31842 -0.506661 0.235736 0.749564 
486 1 0.146099 0.251703 0.101581 0.937218 -3.34033 -0.063982 -0.0542826 -0.564749 
96 1 0.29957 0.251319 0.0518155 0.717009 -3.34237 0.00182691 -0.0419355 -0.452148 
490 1 0.244394 0.254815 0.0991318 1.59963 -3.28141 0.768469 -0.301848 0.132432 
131 1 0.250205 0.301823 0.0468561 0.666473 -3.28131 0.0485123 -0.186874 0.584337 
533 1 0.300876 0.300676 0.0950157 1.28639 -3.34544 0.0234407 0.386467 0.629787 
90 1 0.251383 0.247317 0.000884581 0.591242 -3.34457 -0.263422 0.304695 0.0698493 
100 1 0.400157 0.248224 0.0504917 0.754541 -3.34258 0.157259 0.411893 0.148296 
97 1 0.398553 0.199281 0.00154955 0.395069 -3.30635 0.163465 -0.0646524 -0.170873 
94 1 0.35312 0.248753 -0.000959599 0.843309 -3.32445 -0.707251 0.207468 0.266065 
103 1 0.552508 0.199456 0.0556501 0.680064 -3.3421 -0.00949429 -0.235516 -0.363936 
104 1 0.506437 0.251371 0.0470734 1.59678 -3.23448 -0.660031 -0.296635 0.440647 
143 1 0.54818 0.300202 0.0509026 0.394088 -3.24879 0.659318 0.399092 -0.108114 
502 1 0.550089 0.25089 0.101918 0.465056 -3.2601 -0.0249494 -0.0890119 -0.319037 
98 1 0.449493 0.247156 0.00162794 0.613162 -3.30453 0.101368 0.289736 -0.105882 
139 1 0.449325 0.299431 0.0477818 0.630619 -3.34011 0.467828 -0.0831782 0.563679 
498 1 0.45619 0.250735 0.095681 1.31105 -3.28174 -0.723908 -0.258244 -0.0403625 
107 1 0.646018 0.199402 0.0511374 0.722441 -3.34036 0.311571 0.161547 0.357001 
108 1 0.597311 0.251527 0.0503132 0.710599 -3.33573 0.240607 -0.0780165 -0.0143624 
506 1 0.651011 0.2522 0.0993196 0.587174 -3.30493 -0.16935 -0.293809 0.257207 
106 1 0.647571 0.246195 0.00107133 0.478989 -3.29371 0.24731 0.218945 -0.0458213 
111 1 0.750482 0.200978 0.0529722 0.480018 -3.33292 -0.216896 0.120167 -0.212971 
112 1 0.698354 0.251687 0.0507429 0.421665 -3.30616 0.452981 -0.587219 -0.144636 
151 1 0.748517 0.301234 0.047894 0.489355 -3.35795 0.122466 0.307763 0.388733 
509 1 0.697852 0.201828 0.102907 0.428034 -3.32809 0.166357 -0.131176 -0.532273 
115 1 0.848807 0.202299 0.0533686 0.504266 -3.33261 -0.0117659 0.0422333 -0.33087 
116 1 0.79572 0.251436 0.0472553 1.24892 -3.25115 0.243114 -0.138186 0.939262 
84 1 1.00051 0.251351 0.0476144 0.508608 -3.31669 0.15871 0.264074 0.24328 
120 1 0.897929 0.253 0.0479057 0.843144 -3.31947 0.356398 0.0804555 0.721391 
518 1 0.94587 0.25072 0.101598 1.04375 -3.37533 0.296508 0.0228751 -0.486021 
159 1 0.949962 0.30266 0.051229 0.315396 -3.32906 -0.385102 -0.312399 -0.1429 
128 1 0.0990648 0.350348 0.0525746 0.461507 -3.31504 0.464154 -0.142574 -0.137536 
125 1 0.0950823 0.302678 -0.00140775 0.882676 -3.32201 0.224585 -0.0633583 0.00953472 
122 1 0.0464286 0.355101 -0.000832294 1.09288 -3.28309 0.170705 -0.449095 0.597188 
132 1 0.201438 0.352361 0.0491035 0.411745 -3.34861 -0.281327 -0.239845 0.165617 
167 1 0.150324 0.399816 0.0538296 0.363268 -3.31644 -0.34141 -0.139318 -0.437837 
126 1 0.149397 0.349379 -7.90157e-05 0.535179 -3.29203 -0.06949 0.188355 0.359044 
136 1 0.300419 0.352476 0.0533883 1.44938 -3.28847 0.0563444 0.133141 -0.308161 
171 1 0.251967 0.400994 0.0485635 0.552142 -3.30988 -0.498093 0.226933 0.126306 
573 1 0.3004 0.406487 0.0960834 1.76741 -3.27669 0.0193501 -0.744837 0.327309 
135 1 0.347393 0.30526 0.0411066 4.44839 -3.14202 0.121032 -1.15497 1.42858 
140 1 0.397073 0.347582 0.0504603 0.844442 -3.21484 0.666788 0.281245 -0.24335 
134 1 0.349643 0.349452 -0.00178302 0.748786 -3.27853 -0.213187 0.45002 -0.291856 
175 1 0.354891 0.399581 0.0485971 1.56268 -3.26955 -0.229593 0.363831 0.612523 
534 1 0.353755 0.355453 0.099889 2.22137 -3.25271 -0.924928 -0.603848 0.23013 
144 1 0.50391 0.350393 0.0525519 1.08069 -3.30784 -0.623386 -0.200015 0.0126278 
179 1 0.447693 0.396284 0.0532589 0.844261 -3.3391 0.123058 0.127237 -0.512785 
538 1 0.44623 0.345911 0.101268 0.986771 -3.30964 0.493743 0.549967 -0.16329 
138 1 0.450774 0.347833 0.00386496 0.655353 -3.32728 0.0415697 0.239181 -0.21091 
147 1 0.653041 0.300054 0.0510374 0.751036 -3.28245 -0.507472 0.10199 -0.346406 
148 1 0.599409 0.351545 0.0522531 0.674659 -3.30576 0.168685 -0.571726 -0.305806 
187 1 0.648424 0.401447 0.0488199 0.181682 -3.38189 -0.0478805 0.121803 0.143002 
185 1 0.59742 0.400466 -0.00254616 0.42114 -3.36171 -0.0666743 -0.132407 0.231803 
546 1 0.652932 0.346843 0.0959859 1.99597 -3.292 -0.407391 0.440778 0.668613 
145 1 0.603056 0.300231 3.79956e-05 0.557478 -3.38595 -0.379861 0.0387882 0.105608 
152 1 0.698776 0.351493 0.0470746 0.31356 -3.2618 0.232015 -0.053605 0.160886 
155 1 0.844101 0.299101 0.0529746 1.30542 -3.36212 0.187922 0.618033 0.136744 
553 1 0.796096 0.303936 0.104432 1.11807 -3.33863 0.265153 -0.284757 -0.558885 
156 1 0.79568 0.356956 0.0514096 2.27098 -3.26064 0.237674 -1.1626 0.00257664 
195 1 0.851505 0.398821 0.0560124 1.38868 -3.25547 -0.0518736 -0.0309883 -0.495314 
593 1 0.798948 0.397463 0.101284 1.06338 -3.22672 -0.28228 0.743302 0.0780952 
154 1 0.850054 0.348035 0.00546011 1.50674 -3.2986 0.192731 0.297553 -0.0951196 
157 1 0.897575 0.299641 -0.000174634 0.723687 -3.26461 0.568346 0.343776 0.444586 
124 1 0.997476 0.351436 0.0521611 0.628175 -3.32297 0.304975 0.142617 -0.413022 
160 1 0.900374 0.351466 0.0533841 0.404405 -3.3151 -0.251351 -0.270782 -0.227146 
163 1 0.0548507 0.398988 0.0511807 1.66391 -3.32056 -0.752731 0.255569 0.0529714 
168 1 0.0987175 0.450526 0.0535042 0.57012 -3.33623 0.186626 0.129061 -0.10033 
164 1 0.00385079 0.451767 0.0501438 1.00038 -3.31648 -0.500893 -0.278263 -0.212156 
162 1 0.0511998 0.45154 -0.000279989 0.346679 -3.29869 0.122686 0.0203775 0.427186 
172 1 0.198688 0.449647 0.0508788 0.322312 -3.32037 0.604178 -0.00655306 -0.135569 
207 1 0.153469 0.500738 0.0509677 0.694881 -3.33777 -0.57805 -0.174178 -0.253873 
209 1 0.202108 0.502874 -6.2194e-05 1.05115 -3.30059 -0.809474 -0.560334 0.00252212 
566 1 0.152985 0.449605 0.101242 0.479745 -3.29255 -0.154281 0.220008 -0.247677 
176 1 0.297161 0.456418 0.050819 1.67046 -3.22024 0.726231 -0.833593 0.00141429 
170 1 0.250429 0.452483 0.000492459 0.374122 -3.30643 -0.388996 -0.221761 0.107227 
213 1 0.301402 0.500362 0.000437596 0.415598 -3.24612 -0.259739 -0.0455748 -0.148925 
180 1 0.403695 0.450192 0.0525859 0.732213 -3.25883 -0.75189 -0.0163387 -0.461284 
574 1 0.348116 0.452013 0.102247 0.44276 -3.32371 0.479404 0.339549 -0.377198 
183 1 0.551511 0.396561 0.0523638 1.1045 -3.27345 -0.283532 0.943269 -0.162077 
184 1 0.499191 0.451297 0.0496863 0.463548 -3.3552 0.140847 -0.63493 0.142938 
219 1 0.450313 0.499448 0.0550025 0.906855 -3.2451 -0.619803 0.0649123 -0.855436 
223 1 0.551998 0.500339 0.0478671 0.394173 -3.29897 -0.0473749 0.0775271 0.20165 
621 1 0.497544 0.498588 0.0994775 0.457117 -3.25892 0.641521 -0.401998 0.499388 
578 1 0.446344 0.448263 0.0990665 0.942293 -3.22224 0.71294 0.307486 0.916516 
582 1 0.55015 0.450449 0.101156 0.273086 -3.35228 -0.134858 -0.132539 -0.378539 
178 1 0.447918 0.448665 -0.000571148 0.525389 -3.30289 0.35255 -0.00621547 0.300943 
188 1 0.597198 0.452998 0.0496741 0.763305 -3.30166 0.225595 -0.74254 0.184852 
186 1 0.647329 0.451569 0.000449786 0.598038 -3.2844 0.205266 -0.556512 -0.208542 
585 1 0.599824 0.402386 0.101312 0.514868 -3.31404 0.557133 -0.430057 -0.247827 
586 1 0.650911 0.450308 0.103161 0.562869 -3.28628 0.00323339 -0.276171 -0.5593 
191 1 0.745489 0.400808 0.0453751 1.36411 -3.29381 0.18491 0.211445 0.439544 
192 1 0.700481 0.450688 0.046243 0.715428 -3.29979 -0.280583 0.0618522 0.467666 
190 1 0.748445 0.450177 -0.00208864 0.317191 -3.28622 0.47867 -0.0445848 0.189572 
589 1 0.697608 0.399628 0.102338 0.7603 -3.287 0.0329164 -0.146592 -0.487315 
196 1 0.803547 0.448672 0.0514554 0.881267 -3.33385 -0.752754 0.142963 -0.420188 
194 1 0.848894 0.447661 -0.00121356 0.351561 -3.28415 -0.171379 0.440779 0.0605041 
193 1 0.802029 0.396616 0.00184517 1.63554 -3.31025 -0.286686 0.576238 -0.126288 
199 1 0.949387 0.400042 0.0503702 0.546597 -3.32864 -0.0620876 0.325396 -0.116091 
561 1 0.999455 0.403162 0.0988678 0.491978 -3.32361 -0.0530897 -0.300127 0.119677 
200 1 0.897535 0.447675 0.0483377 0.864253 -3.29457 0.198992 0.224862 0.159091 
598 1 0.950129 0.45313 0.0980515 0.701827 -3.33078 0.183219 -0.0214949 0.175093 
239 1 0.947529 0.498267 0.0488397 0.600012 -3.34274 -0.510129 0.0149776 0.05094 
198 1 0.947405 0.44746 -0.000139269 0.624856 -3.30522 0.035639 0.356708 -0.00527934 
203 1 0.0504726 0.499683 0.051479 0.608839 -3.25789 0.35191 -0.168907 -0.530688 
208 1 0.0962755 0.550887 0.0469451 0.694233 -3.29962 0.50377 -0.249691 0.200144 
204 1 -0.00111247 0.541442 0.0462185 3.29495 -3.17817 -0.162691 1.00534 0.0352344 
245 1 0.0980621 0.599379 0.00141222 0.793478 -3.29615 -0.0710932 0.237918 -0.499196 
205 1 0.102964 0.500542 -0.000322065 0.961096 -3.38613 -0.193616 -0.0447891 0.232408 
201 1 -0.00385915 0.496718 -0.00176798 0.773324 -3.30539 0.237118 0.118376 0.151696 
202 1 0.0458906 0.548925 -0.00114804 0.452159 -3.27727 0.384652 -0.317028 -0.21427 
212 1 0.199749 0.549086 0.0481545 0.32798 -3.28966 0.284013 0.315323 0.160133 
247 1 0.149481 0.599638 0.0479827 0.298512 -3.28032 0.0938895 -0.0645652 -0.147389 
249 1 0.202398 0.599315 -5.09798e-05 0.894817 -3.34222 -0.247865 0.450142 -0.0865805 
206 1 0.149348 0.552809 -0.00120794 0.786062 -3.30286 -0.0594072 -0.390411 0.0246705 
211 1 0.251247 0.501067 0.0504398 0.189945 -3.30081 -0.628162 0.462614 0.139888 
613 1 0.300686 0.505076 0.101495 0.367773 -3.34238 0.305087 -0.394008 -0.00536339 
216 1 0.299899 0.553899 0.0517948 0.41576 -3.31651 -0.0694738 -0.162599 -0.226376 
251 1 0.250258 0.604305 0.051048 1.02482 -3.33488 -0.183085 -0.374595 -0.244112 
653 1 0.298712 0.604875 0.0998802 0.92959 -3.30803 -0.0789549 -0.488259 0.369212 
253 1 0.29828 0.600373 -0.00598007 2.0244 -3.28243 -0.131183 -0.196716 0.629107 
215 1 0.350242 0.500778 0.0484358 0.766807 -3.34241 0.0327186 0.22678 0.815112 
220 1 0.399739 0.552191 0.0528741 0.544636 -3.33131 -0.430407 -0.521625 -0.233324 
255 1 0.348237 0.602469 0.0500839 0.426223 -3.34286 0.101607 -0.115157 -0.20726 
657 1 0.40131 0.600162 0.103216 0.484055 -3.30318 0.299386 -0.389308 -0.244484 
224 1 0.499365 0.547396 0.049038 0.341156 -3.22775 -0.0286007 0.063162 -0.0155211 
622 1 0.548115 0.545843 0.0953892 1.07367 -3.34318 0.432803 0.459819 0.573597 
259 1 0.449445 0.595632 0.0494146 0.497996 -3.29071 0.152952 0.577242 0.128396 
222 1 0.550903 0.552089 0.00179141 0.897751 -3.33172 -0.108986 -0.414663 -0.264472 
227 1 0.647122 0.499659 0.0508845 0.934801 -3.25796 0.814289 -0.231404 -0.258283 
228 1 0.603236 0.548341 0.0475224 0.630871 -3.28659 -0.585366 0.38771 0.332802 
225 1 0.605444 0.500812 -0.00336887 2.06208 -3.2607 -0.80328 0.196093 0.361193 
226 1 0.650302 0.551977 -0.00012211 0.917185 -3.24837 0.201986 -0.417126 -0.602047 
231 1 0.751867 0.499766 0.0418635 1.80896 -3.28211 -0.0913342 -0.129367 0.811769 
229 1 0.697129 0.500439 -0.000859625 0.576284 -3.3458 -0.168446 0.130127 -0.255162 
232 1 0.700672 0.549956 0.0463392 0.427064 -3.27082 0.447651 -0.59636 0.348987 
269 1 0.701564 0.597831 -0.00189518 0.344878 -3.31152 0.207153 0.268654 -0.327889 
630 1 0.750397 0.54973 0.0959749 0.269685 -3.3102 -0.36227 0.296761 0.0883319 
230 1 0.751504 0.548491 -0.00233736 0.248945 -3.31638 -0.163401 0.185639 -0.293642 
235 1 0.854858 0.499366 0.0512584 1.38162 -3.33968 -0.375332 0.354148 -0.20118 
236 1 0.799959 0.550158 0.0469969 0.303519 -3.30062 0.378926 -0.137978 -0.0987538 
275 1 0.844787 0.600995 0.0479859 1.29058 -3.27699 0.381943 0.00439999 0.289426 
633 1 0.798194 0.504934 0.096048 1.64453 -3.30328 0.254236 -0.981584 0.237085 
234 1 0.854822 0.550331 -0.00448026 1.25106 -3.29546 -0.600816 -0.224858 0.45691 
237 1 0.898618 0.499277 -0.00274039 0.307961 -3.3149 0.0877058 -0.171478 0.219485 
240 1 0.897863 0.55372 0.0499692 1.21215 -3.34572 0.176041 -0.385178 -0.0561994 
638 1 0.952183 0.553743 0.0969281 1.23244 -3.32928 -0.196006 -0.142287 0.295738 
279 1 0.954474 0.600301 0.0496131 1.41835 -3.30542 -0.500257 -0.0322086 0.0470743 
238 1 0.949067 0.548603 -0.00209155 0.272135 -3.33722 -0.244144 -0.0584085 0.0325631 
243 1 0.0458035 0.597159 0.0458344 1.31476 -3.31171 0.0503235 0.566726 0.67684 
248 1 0.102685 0.649276 0.0477802 0.501708 -3.29973 -0.62713 0.0254137 0.0856374 
242 1 0.0516603 0.654095 0.000132185 1.05148 -3.31829 -0.100677 -0.217322 -0.175126 
241 1 -0.00224281 0.596316 -0.00055209 0.791095 -3.27341 -0.0850503 0.568023 -0.566868 
285 1 0.10355 0.702055 -0.00268359 0.7194 -3.27174 -0.286823 -0.0929128 0.404464 
685 1 0.102049 0.700273 0.102393 0.479464 -3.29178 -0.263405 -0.221528 -0.256445 
252 1 0.198375 0.653973 0.048968 0.982696 -3.29449 0.580212 -0.536386 -0.430383 
287 1 0.148817 0.698814 0.0490849 0.490155 -3.2888 -0.211223 0.568673 -0.0380376 
689 1 0.199166 0.702663 0.0994523 0.758325 -3.32299 0.0884888 -0.342756 0.0697722 
250 1 0.253372 0.650988 0.000121703 0.803147 -3.31178 -0.449499 -0.0944463 -0.0337576 
256 1 0.297617 0.652225 0.0533599 1.02008 -3.24778 0.0454822 -0.0566633 -0.0534833 
293 1 0.300649 0.703838 0.000315504 0.74729 -3.26586 0.295316 -0.0898599 -0.233044 
260 1 0.401876 0.648546 0.0545213 1.08113 -3.27144 -0.143256 -0.0192067 -0.807362 
697 1 0.401415 0.700148 0.102572 0.620099 -3.3327 -0.110336 -0.250023 -0.256637 
295 1 0.349181 0.695629 0.053185 1.13003 -3.32504 0.150971 0.57191 -0.0705249 
263 1 0.545887 0.597749 0.0507428 1.14043 -3.29992 0.442871 0.045719 -0.0576556 
264 1 0.500765 0.648583 0.0481711 0.293328 -3.34581 0.0152627 0.196745 0.0813322 
658 1 0.453404 0.648157 0.0962437 1.14303 -3.28345 -0.0087918 0.427817 0.615369 
267 1 0.654773 0.595767 0.0490406 1.25373 -3.2177 -0.707892 0.779911 -0.117283 
268 1 0.599861 0.645943 0.0497293 0.77418 -3.28613 0.277171 0.15335 -0.0487938 
266 1 0.650426 0.645765 -0.00109052 0.358788 -3.33366 -0.166558 0.352714 -0.17746 
265 1 0.601707 0.598579 -0.00179756 0.310237 -3.27752 -0.119385 -0.084144 0.191367 
271 1 0.751143 0.600695 0.0472086 0.308239 -3.3353 -0.104273 0.049867 0.147727 
272 1 0.698264 0.64875 0.0475109 0.390157 -3.36188 0.305344 0.137778 0.328221 
311 1 0.748957 0.701008 0.0501327 0.420981 -3.29121 0.171744 -0.250953 -0.0530239 
670 1 0.745141 0.652399 0.103104 1.27921 -3.34527 -0.102177 0.138593 -0.402054 
273 1 0.801966 0.59884 -0.00289822 0.390749 -3.25802 -0.564008 -0.133313 -0.0376566 
276 1 0.797072 0.651564 0.0529433 1.50968 -3.32503 0.138626 0.212554 -0.427452 
274 1 0.846846 0.647415 0.00138463 1.22022 -3.32106 0.201782 0.679466 -0.0419222 
315 1 0.855485 0.698452 0.0482928 1.84834 -3.33059 -0.726477 0.0380248 -0.0780993 
313 1 0.796739 0.703728 -0.00281037 1.38108 -3.26317 0.378233 -0.456726 0.732076 
713 1 0.803583 0.700412 0.0971144 1.27537 -3.34451 -0.381106 0.0234814 0.230408 
244 1 0.999609 0.653097 0.0437242 2.04109 -3.29985 0.184354 -0.171654 0.822955 
280 1 0.902481 0.649573 0.0500881 0.553165 -3.32807 -0.0807345 -0.131653 0.227017 
278 1 0.946829 0.64956 0.000871528 0.537838 -3.22304 0.361294 -0.0138553 -0.457996 
277 1 0.901033 0.59957 0.000217425 0.496629 -3.30225 -0.0293922 0.115754 -0.0513897 
283 1 0.053647 0.70278 0.0501731 0.513463 -3.35942 -0.311723 -0.286972 -0.125975 
288 1 0.0995851 0.751767 0.051683 0.579835 -3.29472 0.461169 -0.190357 -0.186753 
323 1 0.0534133 0.802418 0.0476879 0.709134 -3.25025 -0.358674 -0.504543 0.277319 
282 1 0.0510238 0.749462 -3.2597e-05 0.413387 -3.3523 -0.0063905 0.0549808 -0.043359 
284 1 -0.000997169 0.755586 0.0492458 1.27939 -3.28915 0.854495 -0.947413 0.136644 
281 1 -0.00386132 0.703746 -0.00147835 0.742939 -3.33263 0.366601 -0.391796 -0.117619 
289 1 0.201517 0.698629 -0.00108837 0.635111 -3.28913 -0.416821 0.00634062 0.14672 
292 1 0.1973 0.749775 0.0488717 0.51342 -3.25017 0.320796 0.0389336 0.480614 
327 1 0.150122 0.804393 0.0481304 1.07438 -3.33681 0.393918 -0.348237 0.700757 
286 1 0.154527 0.750089 0.00188854 0.92057 -3.24934 -0.478997 -0.0935432 -0.494333 
291 1 0.25203 0.702215 0.0461557 1.15755 -3.27893 -0.331827 -0.0543422 0.710664 
296 1 0.301144 0.751125 0.049606 0.303847 -3.35598 0.255796 0.124046 0.0549678 
690 1 0.246082 0.751168 0.0969644 1.24736 -3.29802 0.294641 -0.0680299 0.267565 
331 1 0.246807 0.799303 0.0498147 0.704306 -3.32635 0.436087 0.133221 0.00567244 
693 1 0.297709 0.70036 0.101663 0.521269 -3.32346 -0.270619 -0.0440331 -0.455355 
300 1 0.396887 0.749245 0.0510671 0.699507 -3.32204 0.196155 -0.167142 0.222911 
698 1 0.447841 0.74905 0.100572 0.583495 -3.2912 0.248239 -0.108296 -0.00629134 
737 1 0.404206 0.800217 0.100508 0.830602 -3.25818 -0.89567 0.298968 -0.260922 
299 1 0.44835 0.700026 0.0469902 0.814146 -3.27008 0.378206 -0.288236 0.748409 
701 1 0.502261 0.702885 0.0986723 0.916334 -3.34171 -0.369913 -0.706502 0.284083 
303 1 0.550557 0.70111 0.0507147 0.345531 -3.32153 0.017218 -0.387584 -0.107699 
304 1 0.497851 0.748429 0.0491694 0.75901 -3.279 0.643008 0.198589 0.585879 
339 1 0.451949 0.800853 0.0544268 1.01945 -3.29677 0.0917773 -0.0501918 -0.426984 
741 1 0.498844 0.79704 0.106893 2.13475 -3.33104 0.11697 0.370872 -0.534435 
307 1 0.64443 0.696234 0.0466242 1.71488 -3.31571 0.317468 0.286959 0.365435 
308 1 0.597257 0.749935 0.0528965 0.590471 -3.28269 0.36743 -0.0999262 -0.345387 
306 1 0.646866 0.745902 0.0006219 0.775922 -3.34228 0.380689 0.392289 -0.0635462 
347 1 0.649261 0.796767 0.0497664 0.706798 -3.32375 0.0410558 0.387106 -0.182861 
745 1 0.598953 0.803446 0.0964573 1.02761 -3.28396 0.162319 -0.283391 0.612501 
312 1 0.699349 0.749352 0.0509031 0.422851 -3.28704 -0.188519 -0.0516471 -0.300053 
710 1 0.749393 0.748368 0.102394 0.898113 -3.3365 -0.226218 0.0463784 -0.159381 
351 1 0.745412 0.798613 0.0492175 0.517897 -3.31986 0.367829 0.0600365 0.279445 
349 1 0.69961 0.798621 -0.00033632 0.26755 -3.31168 -0.49505 0.218891 -0.021181 
309 1 0.700037 0.698631 -0.000405968 0.305069 -3.28848 -0.510569 0.0126699 0.112709 
316 1 0.798139 0.750568 0.0511246 0.331971 -3.34793 0.247081 -0.177443 -0.365888 
355 1 0.851651 0.799196 0.0529141 0.662553 -3.23263 -0.561532 0.0141241 -0.785181 
753 1 0.799262 0.795894 0.098071 0.500349 -3.30291 -0.286158 0.478633 0.198488 
319 1 0.950691 0.702547 0.0506115 0.342722 -3.33936 -0.197161 0.028234 -0.0400604 
320 1 0.895798 0.75074 0.0534935 1.87615 -3.23181 1.13831 -0.149895 -0.790835 
357 1 0.902026 0.800095 -0.000707728 0.614774 -3.34751 -0.476684 -0.124936 0.179102 
321 1 1.00477 0.800948 -0.00127957 0.778256 -3.32362 -0.533163 -0.105778 -0.0590272 
328 1 0.0963611 0.851102 0.0485632 0.894381 -3.22746 0.794467 0.18757 0.238728 
322 1 0.0530522 0.849871 -0.00160537 0.471233 -3.29736 -0.431338 0.0131046 -0.0473324 
363 1 0.0507699 0.900418 0.0479334 0.378728 -3.30389 -0.303668 0.0517905 -0.105617 
324 1 0.00182318 0.848498 0.0509438 0.498252 -3.29032 -0.275505 0.386928 -0.580666 
325 1 0.104836 0.797397 0.00119398 1.15467 -3.29159 -0.587513 0.213131 -0.597279 
365 1 0.10288 0.900846 -8.36156e-05 0.327622 -3.32015 -0.0408858 0.15568 -0.0295588 
332 1 0.20336 0.850838 0.0458265 1.09111 -3.27059 -0.381734 0.0709208 0.468719 
369 1 0.200034 0.899813 -0.000304707 0.362403 -3.36752 0.349336 0.177346 0.101625 
329 1 0.202034 0.798639 -0.00190101 0.650596 -3.31529 -0.346793 0.426018 -0.00681006 
326 1 0.150051 0.849918 0.000712265 0.37136 -3.24029 0.417439 -0.00463881 0.279358 
336 1 0.302164 0.850822 0.0482928 0.334844 -3.33228 -0.109674 -0.306586 0.256102 
733 1 0.297039 0.798553 0.100049 0.60269 -3.3095 0.267638 0.467707 -0.394733 
335 1 0.353563 0.801301 0.0518104 0.876933 -3.30197 -0.583596 -0.219913 0.11159 
340 1 0.400044 0.84897 0.0453619 1.23828 -3.30667 0.387084 0.334672 0.52937 
337 1 0.401295 0.797422 0.00203367 0.460574 -3.25888 -0.0789568 0.452775 -0.0876017 
734 1 0.350392 0.850276 0.0995114 0.412698 -3.38167 -0.0523226 -0.196662 0.0502711 
334 1 0.348921 0.847191 -0.00211962 0.792347 -3.24675 0.290099 0.523509 0.093483 
343 1 0.550128 0.79819 0.0515485 0.522834 -3.31051 -0.391124 0.127953 -0.133174 
344 1 0.503553 0.848468 0.0502368 0.747093 -3.27179 -0.325954 0.331159 -0.386371 
738 1 0.454917 0.853628 0.0995821 1.52879 -3.34562 -0.327479 -0.356444 0.0774082 
379 1 0.450923 0.900916 0.0544828 1.18188 -3.30712 -0.070115 -0.415521 -0.812801 
781 1 0.505506 0.904926 0.101304 1.89787 -3.22487 -0.377254 -0.259065 0.316188 
381 1 0.503451 0.900902 -0.00247625 0.923978 -3.34955 -0.35676 -0.0461018 0.567173 
348 1 0.598244 0.853103 0.0500218 0.274924 -3.27738 -0.328515 -0.151028 -0.098688 
387 1 0.649713 0.904073 0.050715 0.648967 -3.28201 0.0104589 -0.283113 0.0698844 
746 1 0.64709 0.853512 0.0949306 1.19925 -3.27268 0.203928 -0.193253 0.520989 
785 1 0.597804 0.903814 0.102087 0.75268 -3.30124 -0.0162793 -0.128336 -0.155722 
352 1 0.699968 0.849479 0.0508055 0.468897 -3.27607 -0.46575 -0.155286 -0.403133 
350 1 0.748997 0.849288 -0.00097148 0.201562 -3.31287 -0.341257 0.150588 0.0733212 
389 1 0.696867 0.898124 0.00263985 1.14671 -3.34055 0.508422 0.206236 -0.532158 
749 1 0.694852 0.800981 0.100985 0.855586 -3.3371 0.407444 -0.0624956 -0.0131625 
750 1 0.74971 0.850062 0.0972744 0.521568 -3.32939 0.350744 -0.49464 0.477156 
356 1 0.80065 0.845973 0.0487195 0.386167 -3.33256 -0.0288763 0.162643 0.148394 
354 1 0.848234 0.847017 -0.00213516 0.301436 -3.36911 0.158353 0.175672 0.0937695 
359 1 0.952378 0.798588 0.0509055 0.457685 -3.2741 -0.725522 0.477123 -0.342269 
360 1 0.898607 0.846909 0.0523095 0.857341 -3.28806 0.363381 0.346938 -0.557403 
358 1 0.94862 0.848028 -0.00111394 0.263311 -3.33838 0.137744 0.0810287 0.229092 
368 1 0.101286 0.947192 0.0490259 0.329483 -3.33325 0.0359749 0.356122 -0.195953 
364 1 -0.00341997 0.944405 0.0444466 1.64822 -3.27915 0.627717 0.287076 0.312604 
361 1 -0.00121768 0.896919 -0.00251438 0.295826 -3.34612 0.159198 0.114325 -0.11763 
1 1 -0.000948642 0.999579 0.000430476 0.395067 -3.27741 0.35962 0.00222905 -0.271861 
362 1 0.0493219 0.947992 -0.00243088 0.407015 -3.38948 0.181958 0.214011 -0.0793093 
409 1 0.204825 0.997345 0.100236 0.907027 -3.32166 -0.428237 0.117725 -0.0591301 
367 1 0.151618 0.898972 0.0503416 0.308984 -3.31182 -0.030069 0.0442724 -0.203271 
372 1 0.202429 0.951848 0.0480937 0.37158 -3.33399 0.107846 -0.350376 0.25503 
371 1 0.25518 0.900991 0.0484075 0.557196 -3.31069 -0.482615 0.0645622 -0.0582615 
376 1 0.302615 0.949952 0.0482089 0.380321 -3.32728 0.117749 0.232029 0.150189 
770 1 0.252523 0.946471 0.0999506 0.630015 -3.31257 -0.17769 0.328026 0.00703831 
370 1 0.252033 0.955109 0.00116005 0.956969 -3.25632 -0.00205841 -0.59168 0.257849 
373 1 0.30162 0.899973 -0.00223735 0.167566 -3.35701 0.188177 0.0363968 0.00124258 
777 1 0.396828 0.900493 0.0986458 1.24167 -3.33785 0.145637 -0.240979 0.294676 
375 1 0.35399 0.899488 0.0455021 0.741449 -3.27848 -0.320073 0.0221884 0.196004 
380 1 0.401391 0.949608 0.0521767 0.554348 -3.29356 0.199185 0.288522 -0.449429 
374 1 0.352294 0.949901 -0.000787578 0.217023 -3.31978 -0.0426616 -0.124968 0.00958711 
23 1 0.547593 1.00309 0.0492209 0.714559 -3.28546 0.705093 -0.346941 0.201753 