ITEM: TIMESTEP
8000
ITEM: NUMBER OF ATOMS
4000
ITEM: BOX BOUNDS pp pp pp
1.5509310959870599e+00 3.8949068904012371e+01
-7.7515995170778906e-01 4.1275159951707245e+01
-7.8405766661365905e-01 4.1284057666613300e+01
ITEM: ATOMS id type xs ys zs c_csym c_peratom fx fy fz 
8 1 0.0965968 0.0480628 0.0508777 0.528073 -3.29758 0.176341 0.162062 0.204682 
2 1 0.0512185 0.0498477 0.00236842 0.228754 -3.30146 0.213678 0.0499418 -0.302784 
3 1 0.0487032 -0.00505425 0.0498346 0.967343 -3.26262 0.0754832 0.338234 0.083772 
401 1 0.00367159 0.00180904 0.1011 1.09769 -3.29294 -0.144101 -0.138248 -0.082661 
12 1 0.199507 0.0506091 0.0496847 0.232068 -3.33004 -0.12119 -0.133071 0.153155 
6 1 0.148392 0.0513652 0.00173259 0.441339 -3.3116 -0.209543 -0.296824 -0.0308812 
47 1 0.14874 0.0990748 0.0493426 0.380241 -3.34917 0.0366504 0.420671 0.259921 
7 1 0.144864 -0.00141559 0.0544242 1.26429 -3.34406 0.737628 0.0337905 0.0643756 
49 1 0.195724 0.100393 -0.00200643 0.882557 -3.30074 0.463213 -0.0653043 0.0321213 
16 1 0.300399 0.045879 0.0506912 0.89346 -3.34809 -0.403953 0.55774 -0.163575 
51 1 0.247539 0.100186 0.0464999 0.955991 -3.35326 0.226918 -0.176638 0.512049 
11 1 0.246556 -0.000234806 0.0494888 0.3668 -3.24171 0.370623 0.105879 0.0956243 
13 1 0.298561 -0.0043027 0.00207338 0.603941 -3.36754 0.1727 0.401836 -0.116753 
20 1 0.398475 0.048641 0.0484186 0.782937 -3.2837 0.212029 -0.142525 0.161747 
457 1 0.39981 0.0952836 0.100695 1.25931 -3.28399 0.178481 0.738059 -0.314462 
417 1 0.40302 0.000747528 0.0972257 0.617615 -3.33754 -0.358035 -0.332397 0.19473 
55 1 0.352739 0.096694 0.0478308 0.339367 -3.29209 0.100262 0.236967 0.0659412 
15 1 0.348575 -0.00105894 0.0536909 0.92303 -3.31534 -0.0086025 -0.179104 -0.162043 
414 1 0.347177 0.0516921 0.099575 1.38013 -3.2794 0.145374 -0.785 0.107997 
57 1 0.404906 0.0944281 -0.00132275 2.00812 -3.25828 -0.490877 0.748545 0.28272 
24 1 0.502388 0.0480078 0.0537137 1.23428 -3.18241 0.32804 0.612331 -0.445984 
59 1 0.450198 0.102543 0.0506213 0.680488 -3.38829 0.0277217 0.0978716 -0.0679865 
63 1 0.548321 0.101239 0.0519709 0.543827 -3.33415 0.27932 0.255834 -0.29605 
422 1 0.550463 0.0528771 0.100874 0.200888 -3.2744 0.106705 -0.0285222 0.40786 
22 1 0.551585 0.0552454 0.0031385 1.03451 -3.32567 -0.181811 -0.430491 -0.0934042 
28 1 0.599335 0.0535016 0.0544239 0.728562 -3.29021 0.29543 -0.282959 -0.560388 
426 1 0.647907 0.0522992 0.101961 0.36841 -3.2172 -0.384981 -0.187409 -0.590893 
27 1 0.648319 -0.00156333 0.0487781 0.470878 -3.34667 0.0937326 0.0864666 0.324922 
465 1 0.602058 0.103253 0.100786 0.308995 -3.33411 -0.380933 -0.0176649 0.0472677 
32 1 0.696876 0.0477824 0.0510039 1.07377 -3.29165 0.122178 0.325379 0.0577144 
30 1 0.745502 0.0478206 0.00175766 0.90204 -3.33772 0.71153 0.346497 -0.283533 
71 1 0.747706 0.101277 0.0425574 1.67899 -3.32222 0.318077 -0.399399 0.642808 
36 1 0.800916 0.0517771 0.0536072 1.31805 -3.26734 -0.395037 0.287375 -0.897138 
75 1 0.854863 0.102202 0.0448519 1.68203 -3.31036 -0.721842 -0.295691 0.312165 
35 1 0.848272 0.00489037 0.0516595 1.23863 -3.23124 0.237616 -0.759644 -0.32401 
473 1 0.800288 0.101982 0.0965664 0.382495 -3.35363 -0.082862 -0.137742 0.00310816 
4 1 1.00359 0.0480179 0.0498164 0.598613 -3.31793 -0.15916 0.380948 0.20872 
40 1 0.899309 0.0506398 0.0475222 0.626672 -3.30691 0.482562 0.0331914 0.296091 
438 1 0.949555 0.0499963 0.0990215 0.388011 -3.34679 -0.00433969 0.0950567 0.0123723 
43 1 0.0522355 0.100712 0.0510395 0.241654 -3.34159 0.0433138 -0.0560062 -0.405146 
48 1 0.0973808 0.154623 0.0540157 2.13882 -3.31769 0.193564 -0.405681 -0.852404 
485 1 0.10343 0.202874 0.0988587 0.804199 -3.26911 -0.525665 -0.254299 0.229503 
442 1 0.0516983 0.148858 0.100674 0.383812 -3.25603 -0.293465 0.185464 0.130764 
45 1 0.103875 0.105232 -0.000675944 1.72286 -3.30978 -0.420032 -0.466539 0.0411864 
42 1 0.0500369 0.148318 -0.00382697 1.08099 -3.30759 -0.121036 0.351227 0.493585 
52 1 0.200242 0.151893 0.0489169 0.551821 -3.29764 0.0062852 -0.451303 0.456975 
446 1 0.147941 0.150561 0.102884 0.54677 -3.32928 0.582234 -0.0963691 -0.35706 
87 1 0.150302 0.198609 0.050392 0.401547 -3.26313 0.118239 0.178716 -0.10526 
46 1 0.153646 0.151344 0.00104799 0.875612 -3.23509 -0.581203 0.312443 -0.0112474 
89 1 0.201374 0.201691 0.00324051 0.74572 -3.29668 0.185136 -0.30495 -0.446488 
56 1 0.30561 0.14687 0.0468122 1.06675 -3.24763 -0.288115 0.243633 0.095039 
91 1 0.252827 0.197642 0.0509458 0.453084 -3.31126 0.297173 0.142508 0.147242 
93 1 0.302962 0.195787 -0.00302041 0.877923 -3.31658 0.201086 -0.043688 0.103432 
60 1 0.39871 0.15232 0.0498778 0.949688 -3.32041 0.28253 -0.340546 0.0825502 
95 1 0.34856 0.20234 0.0495252 0.86743 -3.27159 -0.122797 -0.448195 0.407969 
64 1 0.504733 0.15363 0.0525511 1.58012 -3.32222 -0.769618 -0.382453 -0.359899 
99 1 0.450596 0.198922 0.0485639 0.68281 -3.31799 0.0196888 0.128341 0.133768 
61 1 0.499322 0.103812 -0.00146089 0.893492 -3.28778 -0.0371175 -0.172874 0.585239 
62 1 0.548719 0.149795 -0.00145513 0.730576 -3.2154 0.216122 0.356471 0.453879 
101 1 0.50273 0.201356 0.000667951 0.499012 -3.32086 0.00166258 -0.166304 -0.141122 
67 1 0.649826 0.100784 0.0511928 0.3501 -3.32662 0.298626 -0.0785848 -0.320188 
68 1 0.602988 0.150331 0.0505285 0.662489 -3.32964 -0.887176 0.0314354 0.0662535 
466 1 0.65308 0.15116 0.0985416 0.431428 -3.32152 0.0856624 0.0216583 0.332751 
72 1 0.700079 0.150716 0.0448359 0.59822 -3.29249 -0.0217815 -0.18347 0.583778 
76 1 0.798154 0.151282 0.0506285 1.24632 -3.30609 0.487555 -0.347283 -0.611506 
474 1 0.853774 0.14623 0.0963773 0.969694 -3.28711 -0.369351 0.606554 0.261217 
113 1 0.799004 0.199069 -0.0014302 0.342771 -3.18802 -0.0717237 -0.553062 0.205157 
44 1 1.00245 0.148186 0.0529442 0.773419 -3.34909 -0.0866313 0.341975 -0.37861 
79 1 0.950542 0.0994475 0.0516978 0.354468 -3.36781 -0.0742535 0.0614591 -0.350688 
80 1 0.899932 0.150664 0.0461879 0.700448 -3.24223 0.659086 -0.144539 0.476019 
119 1 0.951556 0.201533 0.0519418 0.466775 -3.38466 0.275718 -0.117929 -0.345991 
78 1 0.951507 0.150899 0.001464 0.568525 -3.32672 0.472422 0.0655803 -0.251093 
478 1 0.950013 0.148476 0.10101 0.326429 -3.34674 0.311281 -0.0275911 -0.103606 
117 1 0.900384 0.197921 0.000287406 0.375859 -3.22522 0.576572 0.204289 -0.30222 
81 1 1.00119 0.201631 -0.00205436 0.549933 -3.34911 -0.245822 -0.233716 0.00953073 
83 1 0.0450932 0.204364 0.0494288 2.5237 -3.29979 0.551112 -0.42451 -0.0363317 
88 1 0.104162 0.249544 0.050971 1.0111 -3.30739 -0.374645 0.0143509 -0.0632648 
525 1 0.105299 0.300126 0.0997296 1.00783 -3.32941 -0.765451 -0.445558 -0.0992357 
123 1 0.051466 0.296601 0.0439177 1.68792 -3.25813 0.143023 0.368545 0.768504 
481 1 0.00354791 0.199733 0.102627 0.47101 -3.31401 -0.518577 -0.264788 -0.0319943 
85 1 0.100674 0.197631 -0.00135268 0.994527 -3.29834 -0.20266 0.0475511 0.473931 
82 1 0.0537671 0.249492 -0.000535074 1.17154 -3.33731 -0.173302 -0.013167 -0.0653624 
92 1 0.201955 0.247114 0.0518748 0.851554 -3.33176 -0.239698 0.151525 -0.0995355 
127 1 0.153208 0.295709 0.0436153 2.17773 -3.33506 -0.096612 0.344311 0.228639 
486 1 0.151971 0.249784 0.103677 0.99643 -3.2184 0.604363 0.310576 -0.686293 
96 1 0.30285 0.250704 0.052576 0.976555 -3.26554 -0.427928 0.208495 0.147569 
490 1 0.250888 0.252376 0.100936 0.245644 -3.32618 0.00488638 -0.155025 -0.0642942 
131 1 0.247814 0.300926 0.0465154 0.765963 -3.28714 0.275994 -0.188705 0.416424 
533 1 0.298103 0.303671 0.0978051 0.696101 -3.35554 0.040772 -0.219983 0.00793024 
90 1 0.255862 0.244535 0.0047384 3.01279 -3.2541 -0.525874 0.104424 -0.352227 
100 1 0.399199 0.250104 0.0468162 0.430886 -3.31435 -0.124032 0.088704 0.364054 
97 1 0.395211 0.199505 0.00168593 1.30798 -3.28126 0.324485 -0.0291597 -0.516188 
94 1 0.347101 0.248792 0.000411847 0.58546 -3.28862 0.0774643 0.203811 -0.245214 
103 1 0.549343 0.20265 0.0527615 0.658782 -3.241 -0.00220439 -0.433239 -0.20116 
104 1 0.501312 0.250853 0.0488821 0.753743 -3.31153 -0.399389 0.0812133 0.424457 
143 1 0.549702 0.2994 0.048998 0.657237 -3.29873 0.148447 0.320867 -0.0928574 
502 1 0.55007 0.245853 0.10112 1.53075 -3.26312 -0.283644 0.738985 0.310051 
98 1 0.451427 0.245452 3.03631e-07 1.30873 -3.30812 -0.309599 0.463182 -0.191756 
139 1 0.446786 0.299103 0.0498742 0.666512 -3.31685 0.388797 0.251427 0.123126 
498 1 0.448336 0.251732 0.099011 0.359843 -3.31079 0.134668 0.420749 -0.143092 
107 1 0.649066 0.198994 0.0529926 0.710164 -3.31293 0.296439 0.581358 -0.221145 
108 1 0.597451 0.250177 0.0520482 0.550709 -3.29394 0.405205 0.0525148 -0.121018 
506 1 0.650466 0.253505 0.101057 0.944843 -3.331 -0.304794 -0.548904 -0.179377 
106 1 0.647767 0.246364 0.00442643 1.52616 -3.32628 0.42187 0.207315 -0.0773647 
111 1 0.750486 0.198838 0.0476691 0.265461 -3.29812 -0.234466 0.170726 0.337536 
112 1 0.707376 0.251479 0.0488359 1.70517 -3.32325 -0.57931 -0.300375 0.253708 
151 1 0.753936 0.30204 0.0468626 1.06666 -3.2893 -0.0778631 -0.223003 0.475284 
509 1 0.700251 0.201907 0.101514 0.836153 -3.35488 0.182172 -0.0855894 -0.402467 
115 1 0.852566 0.197902 0.0459922 0.827083 -3.2464 -0.31076 0.173737 0.756889 
116 1 0.803276 0.245871 0.0528082 1.11226 -3.32285 -0.179964 0.390779 -0.538161 
84 1 0.999554 0.254486 0.0513028 1.28482 -3.21086 -0.0540339 -0.673637 -0.417449 
120 1 0.897947 0.250047 0.0495106 0.874973 -3.32582 0.251466 -0.260355 0.029108 
518 1 0.951143 0.249775 0.100365 0.160499 -3.32509 0.191449 0.0336911 -0.195987 
159 1 0.95151 0.298586 0.0448993 0.971833 -3.22962 -0.475141 0.00693658 0.170461 
128 1 0.10022 0.346567 0.0475309 0.635335 -3.29797 -0.187877 -0.110882 0.304313 
125 1 0.0977107 0.30344 -0.00414812 1.40043 -3.25708 0.821932 -0.713323 0.00624289 
122 1 0.0525897 0.351068 -0.00176592 0.626644 -3.24501 -0.751071 0.365911 0.42757 
132 1 0.198104 0.348236 0.0478802 0.305037 -3.27091 -0.0982713 0.135123 0.16588 
167 1 0.14626 0.393706 0.0446814 2.15993 -3.27971 0.437764 0.80488 0.707161 
126 1 0.151234 0.349743 -0.00191989 0.357711 -3.30432 -0.00615858 -0.42427 -0.193062 
136 1 0.299852 0.353684 0.0474005 0.851151 -3.34181 0.0511802 -0.238569 0.514285 
171 1 0.246727 0.39889 0.0472436 0.517551 -3.2928 0.272654 -0.0325004 0.366142 
573 1 0.298336 0.401943 0.0990421 0.453237 -3.34841 0.315538 -0.301296 0.123371 
135 1 0.348799 0.300896 0.0480386 0.332487 -3.30982 0.0323194 -0.193058 0.0950542 
140 1 0.392843 0.351637 0.0496731 2.12164 -3.29963 0.660381 -0.0276611 0.104954 
134 1 0.346252 0.345587 7.54769e-05 1.81921 -3.31491 0.375596 0.215221 -0.695089 
175 1 0.353533 0.405131 0.0543271 2.21059 -3.27689 -0.284885 -0.322567 -0.369726 
534 1 0.349699 0.349867 0.102963 0.939684 -3.32338 -0.0555903 0.585097 -0.263293 
144 1 0.503059 0.352926 0.0511169 0.915931 -3.34893 -0.156234 -0.373987 -0.0966854 
179 1 0.449445 0.401563 0.0452049 1.59745 -3.33566 0.242489 -0.127885 0.497591 
538 1 0.449208 0.351727 0.0979101 0.76256 -3.34316 0.073647 -0.253404 0.0214208 
138 1 0.449213 0.347856 0.00417822 1.78568 -3.29337 0.236786 0.351307 -0.0712404 
147 1 0.652245 0.29697 0.0516993 0.893391 -3.31784 -0.318852 0.163281 -0.218057 
148 1 0.598267 0.350777 0.0509846 0.416178 -3.34716 0.226691 -0.311879 -0.0698322 
187 1 0.651861 0.39868 0.0502145 0.295857 -3.35288 -0.199728 0.10529 0.172427 
185 1 0.602935 0.398886 0.000254106 0.327751 -3.37439 -0.0852893 0.258368 -0.233816 
546 1 0.649623 0.347186 0.0975105 0.611526 -3.36357 -0.106992 0.138697 0.266462 
145 1 0.604872 0.298534 -0.000924175 1.16602 -3.32611 -0.426647 0.175515 0.336998 
152 1 0.698141 0.348434 0.0457484 0.980269 -3.3036 0.524987 0.177456 0.441037 
155 1 0.847541 0.298789 0.0508473 0.988608 -3.30132 0.00996321 -0.083464 -0.124787 
553 1 0.803062 0.299181 0.104738 1.52282 -3.21401 -0.160539 -0.187111 -0.903531 
156 1 0.803377 0.350802 0.0501249 0.376443 -3.27415 -0.179491 0.0369864 -0.415075 
195 1 0.851155 0.400294 0.0507319 0.360678 -3.30458 0.292157 -0.0393067 -0.3193 
593 1 0.803257 0.401675 0.0981578 1.06911 -3.22298 -0.227749 -0.74773 0.184318 
154 1 0.85614 0.349179 -0.00103857 1.34685 -3.40304 -0.142708 -0.138826 -0.0789565 
157 1 0.894697 0.29133 -0.000539738 3.56721 -3.2732 0.196775 0.931434 -0.195512 
124 1 1.00081 0.345725 0.0481261 0.682474 -3.30724 0.0800849 0.430477 -0.064039 
160 1 0.902667 0.345184 0.0517742 1.28834 -3.25568 -0.500324 0.368943 -0.64097 
163 1 0.0484201 0.39862 0.0487226 0.410356 -3.30974 0.567146 -0.228297 -0.219409 
168 1 0.102223 0.448437 0.0498419 0.492678 -3.38239 -0.325747 0.231441 0.0768338 
164 1 0.00155072 0.446885 0.0504256 0.375962 -3.32243 -0.152119 0.389577 -0.129464 
162 1 0.0514125 0.448154 0.000259382 0.328024 -3.29503 -0.398931 0.33832 0.270576 
172 1 0.200581 0.447505 0.0493092 0.270292 -3.30909 -0.443331 -0.100715 0.209805 
207 1 0.15573 0.497036 0.0515707 1.25543 -3.31529 -0.631727 0.189022 -0.319702 
209 1 0.203705 0.500674 0.00100172 0.568876 -3.30316 -0.578762 -0.011845 -0.271673 
566 1 0.148674 0.448225 0.100368 0.344983 -3.31233 -0.10818 0.246617 -0.111766 
176 1 0.295684 0.449278 0.0535883 1.0806 -3.3028 0.401908 -0.082076 -0.386705 
170 1 0.2482 0.448631 0.00112466 0.466275 -3.30753 0.530639 -0.165647 -0.347724 
213 1 0.295404 0.50229 0.00354091 0.990789 -3.19873 1.23186 -0.575107 -0.501839 
180 1 0.404772 0.45332 0.0508742 0.636791 -3.2877 -0.111544 -0.232372 -0.13952 
574 1 0.355336 0.451027 0.0986786 1.03392 -3.25414 -0.80623 0.168997 0.0279115 
183 1 0.552029 0.402077 0.0497043 0.437019 -3.27615 0.0262227 -0.304376 -0.102395 
184 1 0.503952 0.449013 0.0499981 0.444928 -3.33325 -0.15537 0.272291 -0.0866706 
219 1 0.453655 0.499364 0.0492818 0.46517 -3.2717 0.111844 0.305851 0.208089 
223 1 0.549644 0.505045 0.0550865 1.83547 -3.3618 0.177616 -0.370894 -0.394547 
621 1 0.49939 0.499578 0.101822 0.822133 -3.30916 0.190439 0.296091 -0.123292 
578 1 0.456432 0.449194 0.101141 1.7793 -3.28125 -0.516335 0.208546 -0.292002 
582 1 0.549995 0.446673 0.102269 1.3239 -3.29902 -0.35123 0.741597 -0.151537 
178 1 0.451193 0.453403 -0.00102175 0.526824 -3.27883 -0.222787 -0.42068 0.495653 
188 1 0.5994 0.450566 0.0531931 0.382782 -3.29729 -0.248748 -0.172481 -0.269535 
186 1 0.651049 0.451417 0.00335996 0.968894 -3.2576 -0.878695 -0.389949 -0.198665 
585 1 0.59726 0.397948 0.101675 0.614724 -3.2415 0.697025 0.231542 -0.150129 
586 1 0.648094 0.44533 0.102552 0.709798 -3.30543 0.282042 0.300584 -0.377766 
191 1 0.749571 0.398843 0.0489872 0.491823 -3.34203 0.0678556 -0.315421 -0.0128751 
192 1 0.701959 0.446787 0.0504803 0.615894 -3.32313 -0.139982 0.412548 0.343623 
190 1 0.750326 0.451984 -0.00214057 0.835099 -3.21411 0.207606 -0.0569125 0.430045 
589 1 0.701687 0.398848 0.101287 0.480545 -3.27736 -0.336627 -0.253868 -0.539792 
196 1 0.797306 0.448501 0.0452866 1.90109 -3.33936 0.317155 0.386977 0.702061 
194 1 0.848583 0.449201 -0.00216343 0.605908 -3.2767 0.20397 0.164506 0.0945712 
193 1 0.803238 0.399026 -0.000927362 0.59252 -3.29314 0.0255469 -0.11543 0.10775 
199 1 0.950979 0.39713 0.047863 0.387148 -3.31871 -0.00372847 0.21951 0.393278 
561 1 1.00309 0.39675 0.0974139 0.745725 -3.28398 -0.321545 0.100861 0.329856 
200 1 0.899957 0.448348 0.0454747 1.20599 -3.30388 0.152367 -0.0137076 0.774747 
598 1 0.954268 0.447165 0.100204 0.630472 -3.33165 -0.414892 0.00664336 -0.330174 
239 1 0.950122 0.497291 0.0515564 0.411649 -3.35348 -0.183749 0.0931682 -0.160182 
198 1 0.949254 0.451436 -0.00255929 0.671781 -3.27611 0.501963 -0.161185 -0.000565761 
203 1 0.0462404 0.501042 0.0524281 0.915827 -3.31961 0.617724 -0.439255 -0.253307 
208 1 0.101192 0.545233 0.0510425 1.06812 -3.33924 0.0104444 0.339557 -0.161698 
204 1 -0.00257372 0.548064 0.0490538 0.343904 -3.24219 0.216384 -0.178898 0.125028 
245 1 0.0998708 0.59844 0.00167459 0.24109 -3.35617 0.224647 0.0431265 0.0412625 
205 1 0.100569 0.499128 4.79463e-05 0.233663 -3.3766 -0.0403486 0.132173 0.136633 
201 1 -0.000667099 0.497942 0.00148054 0.532154 -3.30446 0.196913 -0.0207898 -0.165962 
202 1 0.0476754 0.549566 0.000136928 0.490164 -3.29546 0.609095 -0.312227 0.0508611 
212 1 0.198339 0.55321 0.0524235 1.04072 -3.25409 0.412815 -0.684982 -0.515536 
247 1 0.15122 0.600898 0.0548101 0.683089 -3.27817 -0.684098 -0.168019 -0.368374 
249 1 0.200181 0.602498 0.00426751 0.826539 -3.27189 -0.16041 -0.426568 -0.627932 
206 1 0.151718 0.550956 0.00187388 0.40129 -3.32427 -0.16685 -0.181484 -0.0550893 
211 1 0.249629 0.49838 0.0480726 0.669891 -3.23491 -0.43121 0.280182 1.07984 
613 1 0.297265 0.494371 0.100879 1.43856 -3.36775 0.0918189 0.676784 0.0133734 
216 1 0.297342 0.552255 0.0510809 0.390588 -3.2847 0.614232 -0.242563 0.0426019 
251 1 0.248372 0.599637 0.0512432 0.347935 -3.25847 0.340547 -0.0358462 -0.19368 
653 1 0.298112 0.599295 0.101011 0.28519 -3.27606 0.558123 -0.114703 -0.113779 
253 1 0.299101 0.602242 0.000137705 0.326256 -3.31433 0.187653 -0.139658 0.0702654 
215 1 0.348871 0.500656 0.0510676 0.266751 -3.37223 -0.0762212 0.281528 0.0435016 
220 1 0.401068 0.552624 0.0525257 0.373401 -3.32635 -0.369551 -0.375709 -0.247692 
255 1 0.351466 0.602334 0.0494654 0.498972 -3.31091 -0.181699 -0.38148 0.416 
657 1 0.401189 0.60287 0.100941 0.670341 -3.3073 -0.578919 -0.261524 -0.196061 
224 1 0.497865 0.552696 0.0474274 1.2077 -3.29824 0.632925 -0.303315 0.457795 
622 1 0.550638 0.551451 0.103946 0.534056 -3.30941 -0.0327458 -0.106432 -0.561001 
259 1 0.45029 0.599038 0.0523884 0.502331 -3.23934 0.0615721 0.531609 -0.104848 
222 1 0.552947 0.5506 0.000819697 0.721061 -3.34452 -0.37939 0.139229 0.0827374 
227 1 0.644766 0.49835 0.0528252 1.16192 -3.28728 0.923402 0.251235 -0.32389 
228 1 0.599959 0.553272 0.0522889 0.724979 -3.33784 -0.023603 -0.219941 -0.0966169 
225 1 0.599889 0.500295 0.000128387 0.333301 -3.28929 0.00360555 -0.201135 0.309694 
226 1 0.651015 0.546715 0.000790412 0.71903 -3.35286 -0.175174 0.319846 0.0334546 
231 1 0.743606 0.500302 0.053264 2.34672 -3.31555 0.876228 -0.267493 -0.458209 
229 1 0.698542 0.494932 -0.000866913 1.54341 -3.18451 -0.0112506 1.09866 0.718212 
232 1 0.698251 0.549392 0.0511836 0.425968 -3.30612 -0.157387 -0.0421055 -0.0867626 
269 1 0.698457 0.598796 0.00227252 0.346931 -3.33248 -0.404084 -0.11183 -0.178778 
630 1 0.751227 0.546761 0.100592 0.496238 -3.32168 -0.324283 0.168045 -0.0436481 
230 1 0.748448 0.551341 0.00152224 0.729061 -3.3542 0.21617 -0.314656 -0.0148488 
235 1 0.85487 0.499344 0.0538874 1.98002 -3.29766 -0.523941 -0.454111 -0.36147 
236 1 0.804445 0.549291 0.0526309 1.53989 -3.25131 -0.734049 -0.376775 -0.625309 
275 1 0.844279 0.60255 0.0512883 1.8806 -3.24627 0.639498 -0.356217 -0.621937 
633 1 0.799453 0.494997 0.0991863 1.02085 -3.34086 -0.0280452 0.19024 -0.0669977 
234 1 0.849412 0.549277 -0.000103428 0.352813 -3.3044 0.176164 0.170741 -0.313809 
237 1 0.898938 0.497002 -0.00106613 0.628222 -3.33262 0.0205361 0.510973 -0.175848 
240 1 0.896615 0.550298 0.0497109 0.966261 -3.33204 0.585798 0.0900315 -0.0108119 
638 1 0.952932 0.548532 0.100717 0.382841 -3.25369 -0.576605 -0.184491 -0.271295 
279 1 0.953431 0.596961 0.0477365 1.00247 -3.29246 -0.643779 0.331267 0.336308 
238 1 0.950815 0.547719 -0.00189193 0.489086 -3.31958 -0.148365 -0.0814769 0.221941 
243 1 0.0476695 0.594726 0.0506085 0.994519 -3.35177 0.320041 0.428381 0.167165 
248 1 0.0984257 0.647058 0.0541151 0.79914 -3.29846 -0.34976 0.0824023 -0.37239 
242 1 0.0513368 0.649129 0.00183643 0.435457 -3.34317 -0.0568899 0.0284555 -0.017876 
241 1 0.000144961 0.599753 -0.000442788 0.400416 -3.27857 0.357347 0.00256139 -0.166714 
285 1 0.100327 0.701076 -0.000694832 0.755056 -3.23452 -0.361583 -0.219732 0.397261 
685 1 0.0972187 0.696634 0.0985612 0.714095 -3.3453 -0.135122 0.340138 0.324038 
252 1 0.201449 0.647993 0.048103 1.06554 -3.27139 -0.15261 0.590882 0.685355 
287 1 0.147198 0.698801 0.0511139 0.431705 -3.29607 -0.00279922 -0.308646 -0.0930859 
689 1 0.196733 0.698936 0.0995628 0.797666 -3.33543 0.386205 -0.313817 0.329674 
250 1 0.253008 0.649704 -0.00171325 1.21912 -3.2105 -0.503821 -0.207181 0.419519 
256 1 0.301494 0.646382 0.0520447 0.61469 -3.27629 -0.226698 0.291407 -0.321563 
293 1 0.299417 0.69694 0.00568921 1.28814 -3.29985 -0.028149 0.429767 -0.188863 
260 1 0.401985 0.647771 0.0498407 1.00793 -3.23528 -0.50398 0.371675 0.911832 
697 1 0.40097 0.700422 0.0976684 1.03069 -3.31137 -0.177108 0.0810336 0.356085 
295 1 0.348291 0.69622 0.0529981 0.640572 -3.31945 0.201375 0.362914 -0.0404698 
263 1 0.546876 0.604325 0.0527221 1.0865 -3.26591 0.58908 -0.522671 -0.599045 
264 1 0.497547 0.651525 0.0510699 0.186481 -3.3257 -0.0592609 -0.0850411 0.112983 
658 1 0.447731 0.651607 0.104449 1.25551 -3.29686 0.499664 -0.0818008 -0.628257 
267 1 0.649147 0.599946 0.0565775 1.17494 -3.21941 0.169214 -0.11859 -0.983587 
268 1 0.603717 0.651479 0.0542184 1.44253 -3.25984 -0.639662 -0.0466176 -0.739004 
266 1 0.649456 0.651677 0.00241033 0.948352 -3.30148 0.571988 -0.297119 0.118157 
265 1 0.602192 0.60119 0.0025768 0.632251 -3.32718 -0.342408 -0.154276 0.409434 
271 1 0.752463 0.595065 0.0524468 1.42328 -3.30015 -0.170782 0.309512 -0.264887 
272 1 0.701429 0.647024 0.0508031 0.5361 -3.34038 0.0311693 0.241776 -0.0133143 
311 1 0.754082 0.700708 0.0492609 0.927389 -3.2785 -0.15586 -0.128504 0.129419 
670 1 0.746917 0.650777 0.102853 1.38376 -3.27607 0.463718 -0.11009 -0.761626 
273 1 0.80014 0.600531 -0.00540682 1.64848 -3.2693 -0.0240145 -0.580637 0.47939 
276 1 0.795135 0.648687 0.0480053 1.20116 -3.27681 0.376175 0.196828 0.410256 
274 1 0.847885 0.649732 -0.00121599 0.333565 -3.36278 0.518215 0.130851 0.0542732 
315 1 0.850799 0.697957 0.0472673 0.546245 -3.32339 -0.544247 0.0581623 -0.342597 
313 1 0.798962 0.701032 -0.00527483 1.21483 -3.30184 -0.0012728 -0.297517 0.551146 
713 1 0.803598 0.700351 0.0981599 0.92036 -3.34795 -0.219158 -0.147038 0.0049207 
244 1 1.00128 0.649304 0.0521717 1.03038 -3.30224 -0.154642 0.019498 -0.599664 
280 1 0.898729 0.646398 0.0510914 0.953914 -3.28365 -0.0612842 -0.0778165 -0.797858 
278 1 0.951067 0.645848 -0.00251418 0.406122 -3.32115 -0.311605 0.485503 0.410419 
277 1 0.900079 0.596942 0.00114065 0.515227 -3.33624 -0.366157 0.336288 0.00255025 
283 1 0.0483526 0.703903 0.0461923 1.67727 -3.36189 -0.273444 -0.578591 0.520245 
288 1 0.0955454 0.752896 0.0540872 2.41982 -3.26287 0.358103 -0.45953 -0.75313 
323 1 0.0453915 0.799239 0.0454167 0.72964 -3.2653 -0.000879387 -0.223223 0.24312 
282 1 0.0474022 0.74922 0.000523206 0.566768 -3.31483 0.0354841 0.276503 -0.315721 
284 1 -0.00836731 0.751322 0.0480104 1.40556 -3.31553 0.535811 -0.253257 0.0443365 
281 1 -0.000948384 0.698782 -0.00482285 0.698063 -3.35299 -0.263423 -0.0121939 0.337511 
289 1 0.206371 0.6961 0.00294406 1.81319 -3.31043 -0.450098 0.538515 -0.0753075 
292 1 0.198264 0.74648 0.0509585 0.56855 -3.31026 0.543787 0.356614 -0.0658237 
327 1 0.149776 0.798996 0.0492947 0.516485 -3.30701 -0.133546 -0.304358 -0.0824034 
286 1 0.151621 0.742632 0.0031863 2.76974 -3.28873 0.160875 1.0457 -0.14762 
291 1 0.250606 0.697847 0.0565377 1.45228 -3.29495 -0.0143629 0.0330356 -0.673178 
296 1 0.300742 0.748318 0.0548259 0.517201 -3.37678 0.137551 0.180569 -0.315766 
690 1 0.250005 0.748795 0.101494 0.121474 -3.34436 0.0255596 0.166676 -0.116844 
331 1 0.247356 0.79796 0.0486938 0.933664 -3.32113 0.0824253 -0.377503 0.359394 
693 1 0.298737 0.695845 0.102421 0.495078 -3.21871 0.166438 0.649464 0.0559309 
300 1 0.396711 0.749642 0.0529741 0.681503 -3.3353 0.104077 -0.11108 -0.124664 
698 1 0.45126 0.752212 0.101002 0.515032 -3.34683 -0.330921 -0.36708 0.187583 
737 1 0.400886 0.80228 0.106593 1.39533 -3.30269 -0.0605777 -0.0155293 -0.737919 
299 1 0.451423 0.69986 0.0512423 0.595322 -3.26837 -0.0902379 0.239421 0.196842 
701 1 0.499032 0.703096 0.101715 0.551376 -3.34302 0.0797646 -0.51767 0.0638125 
303 1 0.548817 0.699527 0.0504675 0.327474 -3.30732 0.0196702 -0.23487 -0.133828 
304 1 0.501473 0.748515 0.0503669 0.761158 -3.27964 -0.389162 0.530855 -0.0664618 
339 1 0.445903 0.798827 0.0521451 0.664406 -3.33274 -0.0256806 0.0913377 0.00819818 
741 1 0.495524 0.800801 0.0996144 1.27575 -3.2572 0.799828 -0.341222 0.0636258 
307 1 0.653059 0.700546 0.0529443 0.888138 -3.27255 -0.494647 -0.269479 -0.771247 
308 1 0.602009 0.746177 0.0480949 1.06147 -3.32902 -0.0292507 0.303971 0.232067 
306 1 0.653184 0.747904 0.00192924 0.458237 -3.31919 -0.135603 -0.146983 -0.302945 
347 1 0.650643 0.800723 0.0492806 0.369454 -3.34046 -0.0902934 -0.414938 0.214687 
745 1 0.601846 0.79878 0.100734 0.418685 -3.32054 -0.198682 0.00583621 -0.366716 
312 1 0.701412 0.748979 0.0473881 0.887623 -3.28463 0.518336 0.187568 0.185044 
710 1 0.753098 0.749945 0.0999153 0.435815 -3.31245 -0.327707 -0.0372857 -0.125915 
351 1 0.750939 0.802621 0.0515975 0.612239 -3.27598 -0.135132 -0.393376 -0.288097 
349 1 0.702484 0.799244 -0.000140357 0.500568 -3.32962 -0.560437 -0.357795 -0.0735889 
309 1 0.709251 0.695521 0.000220161 3.08994 -3.30194 -0.870685 0.414462 0.0924785 
316 1 0.798827 0.751266 0.0488749 0.463828 -3.27863 0.82793 0.0302981 0.399668 
355 1 0.851216 0.799468 0.0486476 0.328082 -3.32359 -0.0754112 -0.285119 0.129902 
753 1 0.799581 0.802275 0.0987646 0.379051 -3.24455 -0.509531 -0.276597 -0.0291807 
319 1 0.950963 0.697262 0.0471588 0.979496 -3.26291 0.0596296 0.00942346 -0.142683 
320 1 0.902313 0.745291 0.0483659 1.51914 -3.31113 -0.192211 0.700352 0.077415 
357 1 0.898605 0.802334 -0.0014849 1.13433 -3.33178 0.0885388 -0.00586118 -0.123716 
321 1 0.997981 0.799058 -0.00429611 0.481941 -3.27415 0.138718 -0.285803 0.175162 
328 1 0.093983 0.845991 0.0495531 0.863453 -3.3141 0.536167 0.345106 -0.355409 
322 1 0.0458454 0.847419 -0.00268395 0.359874 -3.288 0.37491 0.171151 0.227026 
363 1 0.0466468 0.898585 0.0487325 0.21015 -3.30066 0.0683663 -0.0967432 0.22641 
324 1 -0.00127619 0.849089 0.0471452 0.244204 -3.26352 -0.010715 0.16468 0.461872 
325 1 0.100153 0.796007 -0.000976746 1.04835 -3.36813 -0.189747 0.169612 0.128624 
365 1 0.0974456 0.897817 0.00237671 0.303464 -3.26344 -0.163214 -0.17592 -0.438794 
332 1 0.197675 0.849256 0.0498244 0.332982 -3.30565 0.386935 0.292052 -0.123993 
369 1 0.198131 0.898798 -0.00229136 0.886901 -3.27635 0.193256 0.190217 0.859265 
329 1 0.199362 0.804718 0.00101223 2.14126 -3.23822 -0.128301 -1.20784 -0.091249 
326 1 0.146898 0.847131 0.00271244 0.682789 -3.29554 -0.356311 0.418651 -0.220246 
336 1 0.295658 0.844635 0.053546 2.10766 -3.2454 0.49064 0.329534 -0.293819 
733 1 0.302148 0.800276 0.103499 0.564923 -3.31891 -0.441524 -0.34395 -0.225328 
335 1 0.352256 0.800734 0.0524491 0.863615 -3.33224 -0.491941 -0.267815 0.257205 
340 1 0.398145 0.848845 0.0488616 0.340346 -3.28 0.0450925 0.14265 0.52207 
337 1 0.394578 0.801332 0.00161001 0.68519 -3.22604 0.0347191 -0.0565245 0.0664287 
734 1 0.346937 0.850777 0.0993001 0.529249 -3.2905 0.70276 0.105951 -0.250771 
334 1 0.342909 0.850286 0.000255996 1.48532 -3.30422 0.1601 -0.339667 -0.00120937 
343 1 0.554063 0.799171 0.0518482 1.01222 -3.27091 -0.670936 -0.449571 -0.0738298 
344 1 0.502401 0.846742 0.0477269 1.67773 -3.31301 -0.277074 0.411611 0.400757 
738 1 0.452936 0.849506 0.100821 1.01456 -3.29785 -0.839276 0.530342 -0.361986 
379 1 0.446891 0.89665 0.0513908 0.533209 -3.34656 0.325114 0.104283 -0.00414892 
781 1 0.499718 0.899814 0.101958 0.635041 -3.26878 -0.526089 0.00116261 -0.386881 
381 1 0.497231 0.898564 0.00381097 0.919431 -3.37583 0.143806 -0.0056681 -0.337202 
348 1 0.598165 0.84716 0.0518883 0.861517 -3.28543 0.394283 0.687806 -0.0549761 
387 1 0.654146 0.899547 0.0515686 0.865559 -3.24569 -0.532956 -0.122697 0.175015 
746 1 0.6536 0.852414 0.0983997 1.04247 -3.2973 -0.291381 -0.413087 0.203144 
785 1 0.597797 0.899139 0.0992271 0.496488 -3.28886 0.620562 -0.0698221 -0.0091484 
352 1 0.697753 0.848761 0.0495093 0.792911 -3.21194 0.731006 -0.0632634 0.148199 
350 1 0.748822 0.845766 0.00110036 1.21707 -3.2605 0.343906 0.856119 0.081614 
389 1 0.703569 0.89812 0.00266596 0.754308 -3.35325 -0.171711 0.0478162 -0.619992 
749 1 0.7045 0.798104 0.10012 0.936561 -3.30589 -0.14396 0.480078 0.153633 
750 1 0.74641 0.85088 0.101429 0.659838 -3.36661 0.311476 0.108217 0.141578 
356 1 0.800309 0.848949 0.0509476 0.419051 -3.32659 -0.053809 0.452017 -0.381814 
354 1 0.848158 0.853606 -0.00300763 1.00727 -3.28383 0.396822 -0.412173 0.289844 
359 1 0.948529 0.80173 0.0503448 0.493091 -3.27495 -0.229752 -0.303082 -0.111682 
360 1 0.899238 0.846928 0.0521602 1.00752 -3.26734 -0.0637148 0.663573 -0.590903 
358 1 0.951901 0.847773 6.64596e-05 0.514122 -3.29177 -0.572343 0.318217 -0.250316 
368 1 0.0978078 0.946575 0.0505439 0.321074 -3.26804 0.138822 0.19381 0.307625 
364 1 -0.00180507 0.948469 0.0479084 0.677034 -3.30057 -0.193788 -0.245916 0.308562 
361 1 -0.00289502 0.899184 -0.000292589 0.31444 -3.30122 0.184598 0.144943 0.330376 
1 1 -0.00170688 0.998833 0.00331502 0.362676 -3.26556 0.483307 0.0739961 -0.263582 
362 1 0.0504553 0.9467 0.002578 0.585618 -3.32418 -0.244225 0.469799 -0.636311 
409 1 0.202656 1.00354 0.100475 1.7851 -3.35002 -0.541145 -0.343574 -0.0674563 
367 1 0.145833 0.899628 0.0470765 0.693716 -3.30957 0.567751 -0.26394 0.443753 
372 1 0.199823 0.950326 0.0494817 0.400079 -3.30603 -0.549337 -0.0980584 0.101604 
371 1 0.247485 0.898515 0.0492812 0.243938 -3.32651 -0.167682 -0.0297839 -0.325016 
376 1 0.297288 0.94943 0.0519103 0.467513 -3.33457 -0.137832 -0.0286942 -0.268005 
770 1 0.243306 0.947 0.0999907 1.0476 -3.28939 0.413553 0.366366 -0.0499183 
370 1 0.246318 0.949953 0.000763661 0.315369 -3.33439 0.0939398 -0.257296 -0.164143 
373 1 0.300503 0.901415 0.00374669 1.32246 -3.27508 -0.607425 0.111588 -0.688776 
777 1 0.397639 0.901011 0.101412 0.391866 -3.35408 0.311293 -0.155391 -0.250385 
375 1 0.35103 0.898112 0.0453262 1.83357 -3.2309 -0.182547 -0.0561197 1.32803 
380 1 0.400099 0.946837 0.050055 0.741238 -3.29647 0.161025 0.486899 0.291443 
374 1 0.35318 0.947296 0.00225149 1.57854 -3.2427 -0.671265 0.356736 -0.113551 
23 1 0.551358 1.00197 0.048848 0.540375 -3.3016 0.149236 -0.362168 0.199691 
19 1 0.454332 1.00198 0.0495838 1.00782 -3.29307 -0.659881 -0.647384 -0.0540671 