ITEM: TIMESTEP
8250
ITEM: NUMBER OF ATOMS
4000
ITEM: BOX BOUNDS pp pp pp
1.6017437832262245e+00 3.8898256216773206e+01
-8.1113160740894596e-01 4.1311131607408292e+01
-8.0676178515505736e-01 4.1306761785154677e+01
ITEM: ATOMS id type xs ys zs c_csym c_peratom fx fy fz 
8 1 0.0960155 0.0479402 0.0462893 0.966667 -3.30377 0.656905 -0.260514 0.346199 
2 1 0.0454253 0.0475571 0.00146995 0.944634 -3.27744 0.144747 0.215808 -0.624705 
3 1 0.0457205 -0.000709359 0.0480929 0.363909 -3.25656 0.457109 0.132777 0.16513 
401 1 0.00100739 0.00138201 0.102 0.545719 -3.31772 0.120772 0.262035 -0.132204 
12 1 0.200171 0.0470842 0.0503128 0.683109 -3.25994 -0.142346 0.233592 0.15202 
6 1 0.154117 0.0534859 0.00097635 2.6241 -3.19325 -0.80293 -1.21176 -0.0366001 
47 1 0.149457 0.0982721 0.0493084 0.40045 -3.31535 -0.148513 0.0191023 0.164321 
7 1 0.150124 0.000286785 0.0512172 0.756597 -3.32593 -0.52553 0.183328 -0.281767 
49 1 0.196026 0.100789 -0.00310432 1.24939 -3.20527 1.01368 0.530469 0.233889 
16 1 0.298829 0.0486959 0.0493405 0.356765 -3.27926 -0.0343691 0.253541 -0.154459 
51 1 0.245678 0.0988479 0.0494378 0.400878 -3.35342 0.107754 0.100961 -0.13783 
11 1 0.250177 0.00145621 0.0555994 1.86213 -3.26717 -0.352313 -0.643526 -0.884312 
13 1 0.298199 -0.00139583 0.00291141 0.676945 -3.34836 0.121405 -0.00289205 -0.290471 
20 1 0.398686 0.0502779 0.0498735 0.395435 -3.31324 -0.109813 0.401201 0.00295562 
457 1 0.401231 0.0963691 0.105 2.02585 -3.32179 -0.192294 0.434107 -0.709259 
417 1 0.397044 0.000917531 0.0983876 0.423655 -3.27632 0.0389942 -0.213038 0.556905 
55 1 0.346159 0.09786 0.0526181 0.592117 -3.33533 0.323478 0.285715 -0.0398749 
15 1 0.350317 0.00144065 0.0523842 0.571741 -3.26181 -0.263877 -0.323103 -0.593653 
414 1 0.346568 0.0510062 0.102439 0.466734 -3.34439 -0.078804 0.0132086 -0.321375 
57 1 0.394468 0.102955 0.00100686 0.854214 -3.34332 0.646097 -0.305063 0.12741 
24 1 0.495819 0.0499206 0.0532284 0.772593 -3.3319 0.522246 0.154681 -0.501634 
59 1 0.44576 0.102096 0.0517212 0.713852 -3.30729 -0.0857167 -0.156255 0.0578118 
63 1 0.551525 0.0973384 0.0544411 1.30823 -3.33624 -0.645583 -0.29732 -0.458498 
422 1 0.554009 0.04572 0.0998892 1.84373 -3.30544 -0.53942 0.742935 0.0267977 
22 1 0.548439 0.0467639 0.00144621 0.568676 -3.33154 -0.268599 0.557443 0.0416597 
28 1 0.600216 0.047277 0.0491063 0.556479 -3.32783 0.127817 0.00535646 0.351428 
426 1 0.652735 0.055134 0.100961 1.33431 -3.29504 -0.211827 -0.829046 -0.257561 
27 1 0.653788 -0.00221274 0.0492624 0.791466 -3.30701 -0.581755 0.193722 -0.00814575 
465 1 0.601999 0.100881 0.100234 0.608183 -3.28121 -0.280837 -0.136213 0.182943 
32 1 0.700597 0.0484772 0.0495567 0.606738 -3.2936 0.175389 0.312216 0.570219 
30 1 0.747808 0.0515855 0.000139932 0.381496 -3.28317 0.313191 0.19194 0.10627 
71 1 0.747589 0.100728 0.0454475 1.29899 -3.33532 0.297549 -0.0524143 0.397702 
36 1 0.797247 0.0492483 0.0513047 0.434388 -3.30677 0.00435605 -0.140663 -0.120669 
75 1 0.843335 0.0980726 0.0521341 1.7872 -3.26057 0.917181 0.220754 -0.151129 
35 1 0.852412 -0.00221871 0.0526288 0.910342 -3.2757 -0.439523 0.158205 -0.242704 
473 1 0.796305 0.101941 0.0978863 0.702793 -3.31044 -0.206084 0.000987485 0.443885 
4 1 0.999177 0.0518079 0.0496265 0.586615 -3.27459 -0.441381 -0.348941 0.167712 
40 1 0.898139 0.0478548 0.0477159 0.723423 -3.25217 0.104422 0.490427 0.384838 
438 1 0.946881 0.047722 0.0983122 0.763011 -3.32593 0.136823 0.211208 0.234756 
43 1 0.0493444 0.0955083 0.0506432 0.73252 -3.28637 -0.114559 0.893643 -0.277117 
48 1 0.0975784 0.145971 0.0498767 0.450243 -3.32591 0.252438 0.0133576 -0.19589 
485 1 0.103109 0.195704 0.096605 5.82265 -3.27427 -0.413212 0.0253569 0.348967 
442 1 0.0489645 0.151279 0.0959821 1.30567 -3.28003 0.0436714 -0.422362 0.818644 
45 1 0.100248 0.0967026 -0.00131275 0.568239 -3.34178 -0.3474 0.305767 -0.0826868 
42 1 0.045675 0.149746 -0.000785128 0.58332 -3.36894 0.203729 -0.140861 0.365208 
52 1 0.19685 0.149559 0.0462379 0.866219 -3.29539 0.296038 -0.0873028 0.577787 
446 1 0.152293 0.145409 0.104096 2.11417 -3.26398 -0.39434 0.45774 -0.535376 
87 1 0.148572 0.197405 0.0477267 0.725121 -3.27393 0.195141 0.263547 -0.0352538 
46 1 0.146774 0.149529 0.000711633 0.634515 -3.28552 0.0498332 -0.189356 -0.566445 
89 1 0.19987 0.197293 -0.0010956 0.671169 -3.27536 -0.0549572 0.292464 0.185322 
56 1 0.298226 0.150637 0.0509093 0.246472 -3.36022 -0.0395822 0.0439533 0.16428 
91 1 0.246165 0.202332 0.0503639 0.391089 -3.35027 -0.181065 -0.327971 0.147179 
93 1 0.299927 0.203401 0.0044676 0.720833 -3.32574 0.014555 -0.42289 -0.465116 
60 1 0.39458 0.15062 0.0508034 0.701901 -3.32934 0.0977649 -0.233777 0.0781037 
95 1 0.350954 0.201243 0.0527155 0.464184 -3.31158 -0.265405 0.0182699 -0.115818 
64 1 0.501922 0.151809 0.0491668 0.869477 -3.27422 -0.00109855 -0.468017 0.308994 
99 1 0.450802 0.197367 0.0488462 0.706575 -3.33113 -0.193999 0.510734 0.312176 
61 1 0.493515 0.101804 0.00392091 1.99076 -3.3051 0.749482 -0.591186 -0.216039 
62 1 0.549755 0.144609 0.000250771 1.0106 -3.29564 -0.227224 0.32004 -0.353455 
101 1 0.499849 0.197048 -0.00288042 0.908062 -3.2864 -0.0412506 0.323876 0.146726 
67 1 0.650205 0.101404 0.0511731 0.431173 -3.34442 0.253673 -0.180714 -0.163846 
68 1 0.595356 0.146742 0.04747 1.13846 -3.23272 0.624344 0.527857 0.382794 
466 1 0.653204 0.148414 0.0968503 0.888529 -3.34774 -0.310471 0.457259 0.272978 
72 1 0.703904 0.151297 0.0479802 1.51467 -3.29058 -0.558716 -0.339932 0.21562 
76 1 0.800556 0.152092 0.0479877 0.658869 -3.30395 -0.441632 -0.144858 0.00492925 
474 1 0.847759 0.150374 0.0975831 0.377857 -3.33231 0.0490806 -0.134481 0.489477 
113 1 0.796535 0.203435 -0.00130474 0.853303 -3.32835 0.0441317 -0.0945434 0.100733 
44 1 0.995544 0.148157 0.0561122 1.52648 -3.26988 0.268799 0.182199 -0.7241 
79 1 0.94725 0.0995434 0.0529868 0.373517 -3.30642 -0.0286294 -0.113454 -0.513543 
80 1 0.896697 0.151734 0.0498623 0.397763 -3.28472 0.406539 -0.510831 0.058334 
119 1 0.94879 0.201708 0.0533941 0.534399 -3.33586 -0.245656 -0.356471 -0.109364 
78 1 0.950587 0.149195 0.00414218 0.710965 -3.31336 -0.357967 0.082784 -0.205644 
478 1 0.944128 0.147175 0.101494 0.923119 -3.27769 0.363452 0.428788 -0.0613173 
117 1 0.90213 0.200992 0.000185165 0.480261 -3.29908 0.0974043 0.0974362 -0.169891 
81 1 0.996724 0.201502 0.00198008 0.633931 -3.30874 0.319679 -0.329327 0.045471 
83 1 0.0502114 0.198109 0.0505066 0.18057 -3.33162 -0.254955 0.311148 -0.198817 
88 1 0.102039 0.248317 0.0464196 0.894196 -3.32123 -0.0137752 0.117497 0.606873 
525 1 0.0993429 0.297898 0.0989883 1.03021 -3.28754 0.0461412 0.7899 0.00749184 
123 1 0.0505561 0.299591 0.0467562 0.88505 -3.29176 0.0801664 -0.355451 0.750366 
481 1 0.0005546 0.200807 0.102194 0.712658 -3.3042 -0.200164 -0.0234174 -0.441891 
85 1 0.0995535 0.197326 -0.00125843 0.282454 -3.27918 -0.146403 0.106444 -0.0635514 
82 1 0.0519626 0.248884 0.00150125 0.490258 -3.27654 -0.439789 -0.3006 -0.244501 
92 1 0.195665 0.253658 0.0518232 1.34895 -3.34473 -0.182072 -0.567983 0.0239375 
127 1 0.148021 0.301835 0.0508472 0.700799 -3.30843 0.0415674 -0.154255 -0.23701 
486 1 0.142997 0.247683 0.105146 3.16855 -3.2614 0.602196 0.351527 -0.412541 
96 1 0.298598 0.249874 0.0518505 0.126699 -3.26588 -0.118333 0.140278 -0.0887499 
490 1 0.2475 0.247442 0.0995099 0.694793 -3.23432 -0.59455 0.267231 -0.0907305 
131 1 0.247139 0.300107 0.0494622 0.427064 -3.34991 0.504481 0.273924 -0.122509 
533 1 0.29571 0.297787 0.102502 0.909065 -3.33961 0.244192 0.362145 -0.219673 
90 1 0.248735 0.249276 0.00328469 0.544039 -3.30907 -0.23921 0.273152 -0.148085 
100 1 0.402939 0.251662 0.0501203 1.09148 -3.28558 -0.168242 -0.66771 0.374851 
97 1 0.396379 0.199401 0.00137888 0.429756 -3.33536 0.262597 0.0687945 -0.0200182 
94 1 0.348862 0.25162 0.00167723 0.323739 -3.2765 0.23975 -0.393863 0.00483954 
103 1 0.54802 0.200995 0.0473399 0.756479 -3.33598 0.15443 -0.0256003 0.282957 
104 1 0.496527 0.249698 0.0517331 0.600317 -3.30371 0.292244 -0.0442154 -0.069725 
143 1 0.551053 0.300324 0.052085 0.407934 -3.30613 -0.267858 0.0352676 -0.469358 
502 1 0.549587 0.250776 0.100927 0.352123 -3.31141 0.188334 -0.15792 -0.255713 
98 1 0.450401 0.249475 0.00149874 0.424182 -3.27747 0.321895 -0.499135 -0.434444 
139 1 0.448726 0.302114 0.0526181 0.823753 -3.28866 -0.00391678 0.260985 -0.0284212 
498 1 0.451921 0.247156 0.101674 0.455706 -3.3295 -0.481173 0.0427316 0.0124492 
107 1 0.647775 0.198042 0.0475801 0.527309 -3.3183 -0.128846 0.11665 0.471605 
108 1 0.599622 0.249192 0.0497802 0.260182 -3.30164 -0.351859 -0.119447 -0.256744 
506 1 0.644675 0.250278 0.0979791 0.781753 -3.30468 0.57986 -0.26018 0.321001 
106 1 0.650011 0.25052 0.000375787 0.233964 -3.32158 0.0318378 -0.358259 -0.158878 
111 1 0.74801 0.200572 0.0501798 0.37026 -3.22814 0.248681 0.250642 -0.184397 
112 1 0.70045 0.25104 0.0492773 0.453072 -3.33024 -0.272006 -0.0473121 0.115 
151 1 0.751772 0.298555 0.0505661 0.701632 -3.35783 -0.182404 0.28104 -0.149893 
509 1 0.697349 0.202399 0.0994811 0.59812 -3.30282 -0.41226 -0.185593 0.107537 
115 1 0.852121 0.200782 0.0462639 1.11829 -3.23242 -0.409223 0.526817 0.343709 
116 1 0.798929 0.249872 0.0519317 0.825577 -3.33686 0.0893674 0.0850869 -0.442467 
84 1 0.996966 0.248283 0.0505802 0.559088 -3.29643 0.994177 -0.17408 0.189547 
120 1 0.896565 0.252552 0.0500298 0.927372 -3.30169 0.278535 -0.490935 -0.264569 
518 1 0.947274 0.251098 0.0993665 0.695762 -3.30446 0.259935 -0.331208 0.166727 
159 1 0.953644 0.296102 0.04858 1.03964 -3.24186 -0.573587 0.73095 0.256443 
128 1 0.0993533 0.350265 0.0514008 0.294461 -3.28519 0.321227 0.0730889 0.395012 
125 1 0.0966409 0.299109 -0.00302091 1.27994 -3.23936 0.90641 0.359676 0.741746 
122 1 0.0517657 0.352747 0.00550237 1.50595 -3.23846 0.0840558 -0.468767 -1.02837 
132 1 0.200424 0.35217 0.0491902 0.351583 -3.25029 0.283863 -0.210142 -0.0228351 
167 1 0.151784 0.404302 0.0515926 0.742039 -3.28733 0.129439 -0.257007 -0.413639 
126 1 0.147627 0.352715 0.00322749 0.772042 -3.33632 -0.0426966 -0.412525 -0.359714 
136 1 0.302657 0.351821 0.0515318 0.724009 -3.34875 -0.221999 -0.221962 -0.146478 
171 1 0.247278 0.402695 0.0510046 0.850867 -3.30211 0.719435 -0.578423 0.11037 
573 1 0.300232 0.401585 0.102492 0.298546 -3.30101 -0.143736 0.253002 -0.22327 
135 1 0.347986 0.296698 0.0503454 0.739372 -3.29851 -0.07385 0.669066 -0.0378408 
140 1 0.395337 0.35059 0.0512806 0.908893 -3.3626 -0.103156 -0.574832 -0.02391 
134 1 0.347291 0.348388 -0.00141203 0.940171 -3.29556 0.455817 0.354324 0.533332 
175 1 0.350649 0.402094 0.049176 0.54899 -3.22252 0.0850695 -0.700719 0.162887 
534 1 0.346494 0.350479 0.1047 0.986384 -3.31657 0.382305 -0.105604 -0.41966 
144 1 0.50262 0.350775 0.0504421 0.600331 -3.36005 -0.435438 -0.125869 0.0140203 
179 1 0.445661 0.39635 0.0490642 1.06909 -3.27662 0.746395 0.306959 0.180547 
538 1 0.449117 0.348998 0.102887 0.550375 -3.33491 0.101111 -0.203863 -0.419386 
138 1 0.450394 0.352109 -0.000485795 0.586736 -3.31516 -0.00407176 -0.570899 0.23305 
147 1 0.648284 0.298118 0.0487563 0.418921 -3.31268 0.187998 0.217716 0.0479856 
148 1 0.605943 0.349879 0.0518251 1.69125 -3.35147 -0.594052 0.204243 -0.427325 
187 1 0.648834 0.403482 0.0494515 1.39552 -3.29618 0.597953 -0.452865 -0.237732 
185 1 0.601523 0.398751 -0.00122595 0.499665 -3.33831 0.344515 -0.00974433 0.30873 
546 1 0.6505 0.347393 0.103153 1.33487 -3.29537 -0.0504193 0.31097 -0.263518 
145 1 0.59891 0.296619 -0.00300744 0.941985 -3.27013 -0.00480348 0.368146 0.530423 
152 1 0.70072 0.349267 0.047725 0.434685 -3.31939 -0.905951 -0.244785 0.668557 
155 1 0.848035 0.29958 0.0517722 0.655897 -3.2587 -0.200191 0.011601 -0.661394 
553 1 0.801045 0.301408 0.099901 0.4259 -3.28964 -0.24894 -0.295082 0.448751 
156 1 0.804181 0.35062 0.0484547 1.24435 -3.2894 -0.541908 -0.164643 0.0443662 
195 1 0.8488 0.402736 0.0483864 0.77296 -3.23873 0.01241 -0.155646 0.189381 
593 1 0.799602 0.401318 0.0980345 0.498321 -3.27489 0.068245 -0.223035 0.221731 
154 1 0.850966 0.344101 -0.0010489 2.06935 -3.29899 -0.309924 0.148323 -0.143083 
157 1 0.90149 0.297304 0.00130597 0.790025 -3.29995 -0.375626 0.38347 -0.0454423 
124 1 1.00164 0.346633 0.0499587 0.471386 -3.26305 -0.363954 0.178893 0.24368 
160 1 0.896413 0.350391 0.0482355 0.811048 -3.36306 0.561524 -0.122761 0.312268 
163 1 0.0498723 0.400194 0.0520408 0.351025 -3.29652 0.129602 0.157338 0.272302 
168 1 0.102059 0.449593 0.052538 0.291781 -3.32579 -0.0916471 0.160129 -0.268077 
164 1 0.00101743 0.44934 0.0488997 0.288289 -3.36519 0.0105977 0.19192 0.27822 
162 1 0.0533406 0.451149 0.000600154 0.288269 -3.32766 -0.240318 0.0375494 0.0432201 
172 1 0.20561 0.451005 0.0481083 0.950815 -3.25945 -0.929413 0.269972 0.0734634 
207 1 0.15279 0.500471 0.05116 0.353856 -3.29936 -0.300721 -0.355024 -0.486609 
209 1 0.205102 0.499674 -0.00159406 0.386872 -3.25766 -0.610767 0.0314141 0.342603 
566 1 0.153341 0.452684 0.101378 0.77925 -3.22981 -0.299842 -0.353545 -0.791872 
176 1 0.303745 0.447345 0.04811 0.939797 -3.31681 -0.487161 0.676007 0.351762 
170 1 0.25096 0.450097 -0.000665037 0.211651 -3.27269 0.444695 -0.229666 -0.0340205 
213 1 0.304094 0.499085 -0.00412665 0.87507 -3.32522 -0.146422 -0.23399 0.443691 
180 1 0.397396 0.449005 0.0476328 0.795481 -3.27286 0.388477 0.279411 -0.0781529 
574 1 0.353496 0.445146 0.102178 1.72332 -3.25104 -0.751739 0.335437 -0.276024 
183 1 0.549188 0.399853 0.0495372 0.257022 -3.31439 0.368638 -0.0887456 -0.338677 
184 1 0.496535 0.450205 0.0477032 0.425116 -3.32817 0.277622 -0.070283 0.364988 
219 1 0.451171 0.50233 0.0477368 1.14675 -3.28977 -0.176386 -0.459295 0.628799 
223 1 0.548766 0.500062 0.0494306 0.274984 -3.35286 -0.212357 0.117324 -0.145468 
621 1 0.495937 0.496452 0.10267 1.21392 -3.34636 0.030589 0.240442 -0.524996 
578 1 0.445039 0.446569 0.096425 1.30244 -3.2664 0.779362 0.102162 0.301088 
582 1 0.548453 0.4483 0.0969516 0.437982 -3.25665 0.268058 0.672542 -0.0254685 
178 1 0.45095 0.451517 -0.000883182 0.307967 -3.26346 -0.418715 -0.0460802 -0.0057593 
188 1 0.59952 0.450707 0.0502005 0.402926 -3.27222 -0.0566498 0.0876154 -0.543374 
186 1 0.656957 0.451106 0.000993561 1.05628 -3.28787 -0.571434 -0.160822 0.252595 
585 1 0.60076 0.401255 0.0981919 0.326905 -3.23195 -0.128698 -0.0899405 -0.296895 
586 1 0.652576 0.451162 0.0931868 1.48824 -3.24953 -0.203429 0.0673787 0.807072 
191 1 0.746569 0.398303 0.0496263 1.077 -3.32638 0.49139 0.360704 -0.252566 
192 1 0.704664 0.454513 0.050346 1.67162 -3.25521 0.13262 -0.495304 -0.13238 
190 1 0.751045 0.447264 -0.00341341 1.28474 -3.3085 -0.121854 -0.0170402 0.827012 
589 1 0.700505 0.397328 0.0990512 0.96881 -3.33999 0.0203809 0.232954 0.347542 
196 1 0.797763 0.452263 0.0489957 0.755627 -3.29259 0.137378 -0.557213 -0.232284 
194 1 0.848139 0.451463 -0.000530681 0.405784 -3.36819 -0.113215 -0.169713 -0.0226218 
193 1 0.80094 0.394323 0.00137624 1.70415 -3.28625 -0.415634 0.562824 0.0897846 
199 1 0.951923 0.396961 0.0461507 0.973123 -3.36601 -0.259029 0.0824186 0.514484 
561 1 0.998225 0.395928 0.101324 1.10473 -3.26873 0.377386 0.749096 -0.178216 
200 1 0.900309 0.447969 0.0472216 0.336279 -3.32067 0.32385 0.147322 0.368642 
598 1 0.953602 0.447516 0.101096 1.157 -3.31792 -0.574575 0.0702143 -0.561048 
239 1 0.948147 0.501 0.0489605 0.634818 -3.32805 0.39085 -0.292912 -0.0926594 
198 1 0.951509 0.447652 0.000765798 0.2046 -3.31702 -0.14369 0.0414215 -0.0502836 
203 1 0.0548674 0.500104 0.0496764 0.445143 -3.32351 -0.580872 -0.171529 0.271753 
208 1 0.104382 0.548022 0.0488059 0.576633 -3.30003 -0.260184 0.488533 0.028421 
204 1 0.00291603 0.549527 0.0529482 0.589097 -3.30147 -0.095865 -0.0244171 -0.705882 
245 1 0.0991047 0.598437 -0.00160469 0.487549 -3.36262 0.163677 -0.0396609 0.243369 
205 1 0.102158 0.500107 0.00189308 0.246692 -3.27544 0.120034 -0.00109385 -0.227662 
201 1 0.00230111 0.499734 0.000797331 0.167656 -3.34002 -0.214178 -0.190133 0.0673132 
202 1 0.0511925 0.547274 0.00047127 0.449345 -3.28823 -0.0986344 0.426192 0.309346 
212 1 0.199847 0.549279 0.0482828 0.378177 -3.30006 0.304794 0.196774 0.250298 
247 1 0.152192 0.601042 0.0478639 0.273914 -3.33278 -0.277028 -0.041559 0.0231757 
249 1 0.198951 0.603285 -0.00305099 0.840174 -3.29214 0.015854 -0.678403 0.008579 
206 1 0.154416 0.550916 -0.000339233 0.563772 -3.31973 -0.284131 -0.102458 -0.269748 
211 1 0.253963 0.499475 0.0487253 0.378441 -3.27958 0.104758 -0.0385316 0.0129564 
613 1 0.299476 0.500137 0.0996373 0.16377 -3.34523 0.0473022 -0.0736119 0.315731 
216 1 0.302143 0.548016 0.0494272 0.516172 -3.30066 -0.184619 0.434225 0.222389 
251 1 0.246988 0.600927 0.0514545 0.874076 -3.307 0.46611 -0.147857 -0.598271 
653 1 0.299086 0.603224 0.100084 0.421512 -3.28757 -0.0853793 -0.489379 -0.101234 
253 1 0.299596 0.598103 0.00166873 0.636068 -3.36011 -0.0529181 0.0874439 -0.235471 
215 1 0.350906 0.500847 0.0540751 1.60092 -3.24043 -0.357296 -0.45676 -0.778682 
220 1 0.398568 0.549645 0.047836 0.731796 -3.26055 0.431587 0.151462 0.418275 
255 1 0.348749 0.600689 0.0540653 1.32557 -3.29485 0.165157 -0.0633808 -0.46207 
657 1 0.400373 0.597908 0.0988971 0.604612 -3.30993 0.0278801 0.381841 0.133278 
224 1 0.496893 0.550705 0.0530502 0.697345 -3.26773 0.483186 -0.243377 -0.171269 
622 1 0.546726 0.546618 0.100348 0.577605 -3.35556 0.0910644 0.227434 -0.0514463 
259 1 0.451441 0.599724 0.0477198 0.865756 -3.23951 -0.280636 0.107298 0.504786 
222 1 0.55314 0.550051 -0.00297046 0.832592 -3.31019 -0.680649 -0.133525 0.472891 
227 1 0.651705 0.502023 0.0464203 0.737884 -3.32454 0.219306 0.159675 0.295936 
228 1 0.599071 0.551266 0.0500015 0.348304 -3.30942 0.0513334 -0.266123 -0.0545026 
225 1 0.603745 0.500899 -0.00117752 0.239866 -3.328 -0.307313 -0.170988 0.111212 
226 1 0.656497 0.549936 -0.00299199 1.80739 -3.25975 -0.747342 -0.106078 0.709347 
231 1 0.753838 0.500113 0.0539029 1.13704 -3.22505 -0.485057 0.6673 -0.15214 
229 1 0.70869 0.501813 0.00272515 1.74208 -3.31084 -0.201795 0.0802089 -0.17428 
232 1 0.698993 0.556045 0.0523071 1.72778 -3.31238 0.490678 -0.717856 -0.00319586 
269 1 0.701102 0.60048 0.00668569 1.71935 -3.30622 -0.0710351 0.426076 -0.669574 
630 1 0.749483 0.550195 0.101093 0.454718 -3.33821 0.263516 -0.00805187 -0.305226 
230 1 0.753409 0.553508 -0.00219894 0.936774 -3.28647 -0.415985 -0.0434821 0.571001 
235 1 0.852227 0.499174 0.0492216 0.446061 -3.29318 0.129954 0.00402014 -0.275205 
236 1 0.80366 0.546361 0.0500257 1.30887 -3.24461 -0.600932 0.719658 0.278059 
275 1 0.847648 0.601157 0.0498034 0.790455 -3.29449 0.23401 -0.0426351 0.0162661 
633 1 0.804181 0.5016 0.0998005 0.749967 -3.24521 -0.533913 -0.277146 0.329795 
234 1 0.849353 0.554209 0.00271932 1.31595 -3.24966 0.242956 -0.675708 -0.459474 
237 1 0.901557 0.498801 -0.000331112 0.203077 -3.31731 -0.2001 0.220492 0.0845165 
240 1 0.900312 0.554811 0.0507484 1.41836 -3.23624 -0.272228 -0.562214 -0.442831 
638 1 0.948781 0.549096 0.0951452 1.1054 -3.28074 0.0818345 0.0655134 0.901631 
279 1 0.950843 0.601271 0.0503667 0.400929 -3.34444 0.256696 0.183532 -0.103069 
238 1 0.953153 0.549551 0.00100361 0.294424 -3.33489 -0.00546577 -0.0601699 0.0781509 
243 1 0.0547606 0.600821 0.0523875 0.934382 -3.27577 -0.415017 -0.532578 -0.512159 
248 1 0.0989858 0.649128 0.0471211 0.570751 -3.30678 0.0281705 0.451505 0.389961 
242 1 0.0502002 0.652584 -0.00199614 0.857826 -3.20114 0.22052 -0.186846 0.528201 
241 1 0.00319327 0.598633 0.0019987 0.576663 -3.35059 -0.159366 0.184224 0.120733 
285 1 0.0991537 0.699941 0.000192652 0.360404 -3.28769 -0.0996976 0.550678 0.0512783 
685 1 0.100227 0.703554 0.0965808 0.949304 -3.33029 -0.160623 -0.155805 0.46429 
252 1 0.200056 0.652163 0.048087 0.162417 -3.30201 -0.197055 0.0416777 -0.0595477 
287 1 0.149171 0.700823 0.0463559 0.313829 -3.32998 0.216505 -0.0385394 0.214198 
689 1 0.199897 0.700082 0.100227 0.710217 -3.28776 -0.520132 0.188392 -0.141117 
250 1 0.245553 0.647828 -0.00316183 1.19367 -3.26959 0.82708 0.395873 0.0240213 
256 1 0.300845 0.649214 0.04485 1.2163 -3.32893 -0.499205 0.0488036 0.388618 
293 1 0.297886 0.697902 -0.00111161 0.531531 -3.33146 -0.254089 0.203949 0.0838518 
260 1 0.404046 0.651885 0.0507843 1.08319 -3.37188 -0.370252 -0.190677 -0.0726393 
697 1 0.402263 0.698908 0.0999296 0.368171 -3.27299 -0.477337 0.0856968 -0.34234 
295 1 0.34761 0.697403 0.0460853 1.06697 -3.29968 0.167235 0.262968 0.446148 
263 1 0.546647 0.598809 0.0504947 0.617102 -3.30348 0.512122 0.109249 0.261766 
264 1 0.497871 0.649222 0.0487323 0.553988 -3.3023 -0.00654429 0.250039 0.0814474 
658 1 0.447169 0.648906 0.104074 1.39514 -3.30359 0.571013 -0.0860424 -0.415238 
267 1 0.646579 0.599945 0.0517152 0.908385 -3.25669 0.523912 0.0965223 0.282106 
268 1 0.602769 0.64837 0.0519781 0.695163 -3.26805 -0.637119 0.269873 0.150286 
266 1 0.648296 0.651903 0.00308589 1.106 -3.32743 0.474204 -0.402544 -0.38854 
265 1 0.601944 0.596897 0.00199154 0.954436 -3.29675 0.0685613 0.440592 -0.229668 
271 1 0.755394 0.602971 0.05108 1.00494 -3.34094 -0.278458 -0.59482 0.0195424 
272 1 0.702668 0.651061 0.0543495 0.553601 -3.23593 -0.395175 -0.369181 -0.547418 
311 1 0.751367 0.700101 0.0525108 0.255212 -3.28665 -0.0918935 -0.177311 0.218397 
670 1 0.74818 0.649017 0.100688 0.542233 -3.27141 0.814782 0.259014 0.319381 
273 1 0.801452 0.602219 -0.00255239 0.448774 -3.26162 0.18195 0.340021 0.107497 
276 1 0.803402 0.65015 0.0492022 0.467446 -3.29272 -0.0980227 0.4409 0.380856 
274 1 0.851844 0.65376 -5.47179e-05 0.534752 -3.32274 -0.0640496 -0.463443 0.1225 
315 1 0.854443 0.70093 0.0528311 0.451245 -3.32406 -0.22628 0.12844 -0.207638 
313 1 0.800574 0.700939 0.00413654 0.652181 -3.33559 0.0387166 -0.102336 -0.571044 
713 1 0.801057 0.698089 0.103401 0.349644 -3.36818 0.00135997 0.0492057 -0.127697 
244 1 1.00719 0.649937 0.0486083 1.59828 -3.31258 -0.573562 0.136248 0.278281 
280 1 0.89961 0.649674 0.0543524 0.953843 -3.27218 0.355945 -0.0561826 -0.796517 
278 1 0.951086 0.652962 0.0039945 0.702672 -3.32165 -0.173223 -0.505727 0.178715 
277 1 0.900462 0.59617 -0.000281033 1.5446 -3.27684 0.117218 0.887395 0.154365 
283 1 0.0498885 0.704938 0.0516815 0.690688 -3.27663 0.326883 -0.173207 -0.587813 
288 1 0.101563 0.753667 0.0486674 0.286138 -3.34309 -0.0463962 -0.00392539 -0.101087 
323 1 0.049451 0.802236 0.0530934 0.448429 -3.31283 -0.0833364 -0.0756509 -0.472343 
282 1 0.0499795 0.75495 0.00136929 0.496439 -3.36313 0.247082 -0.367871 0.102806 
284 1 -0.00123829 0.752607 0.0526725 0.329186 -3.3305 0.0452262 0.160285 0.222789 
281 1 -0.00222391 0.704196 0.00295455 0.822068 -3.31358 0.370083 -0.0633289 -0.100497 
289 1 0.204033 0.701456 -0.00399046 1.24076 -3.30435 -0.570317 -0.431555 0.253008 
292 1 0.19811 0.7492 0.0451991 0.607069 -3.26899 -0.00209703 0.355003 0.511224 
327 1 0.152304 0.805558 0.044441 1.61535 -3.25187 -0.234375 -0.418588 0.601201 
286 1 0.152072 0.749467 -0.00363906 0.409912 -3.24121 -0.424449 -0.0852256 0.410356 
291 1 0.247221 0.702483 0.0492507 0.653092 -3.30568 0.527339 -0.251774 -0.124349 
296 1 0.296223 0.753381 0.0500992 1.31475 -3.25941 0.481086 -0.767555 -0.525804 
690 1 0.246579 0.752805 0.0978747 0.430832 -3.30637 -0.126248 -0.0815837 0.077872 
331 1 0.248307 0.80042 0.0475382 0.435017 -3.32851 -0.444019 0.224512 0.139004 
693 1 0.300453 0.702995 0.0980646 0.49174 -3.30718 -0.218032 -0.19779 -0.115384 
300 1 0.400109 0.746018 0.0491641 1.01691 -3.30604 0.262368 0.477479 -0.206918 
698 1 0.451319 0.748929 0.0976089 0.322593 -3.32913 0.177164 0.0373912 0.114251 
737 1 0.4019 0.79911 0.100202 0.496604 -3.3346 -0.286781 -0.0703075 -0.480795 
299 1 0.453049 0.701926 0.0504052 0.657862 -3.31479 0.165506 -0.286303 -0.344956 
701 1 0.506127 0.698148 0.0995988 1.2779 -3.30726 -0.612427 0.330193 0.228711 
303 1 0.549225 0.697716 0.0482084 0.800559 -3.29402 -0.0545897 0.171106 -0.208105 
304 1 0.500616 0.752472 0.0472031 0.601126 -3.30048 0.496761 -0.192169 0.504248 
339 1 0.448984 0.802965 0.047728 1.01123 -3.28885 0.00707601 -0.627069 0.321416 
741 1 0.497661 0.800314 0.10117 0.89051 -3.32619 0.313944 -0.180133 -0.473163 
307 1 0.65461 0.698692 0.0504143 0.795974 -3.28126 -0.567137 0.549362 0.50592 
308 1 0.597602 0.748523 0.0511292 1.47233 -3.32341 0.460006 0.311714 -0.515541 
306 1 0.6564 0.752001 0.00258123 1.19816 -3.3079 -0.647897 -0.405842 -0.285525 
347 1 0.649294 0.803926 0.0452881 2.21942 -3.22051 -0.171825 -0.437469 1.25997 
745 1 0.601693 0.798487 0.0986074 0.497244 -3.28156 -0.221002 0.154652 -0.0162874 
312 1 0.70344 0.752926 0.0513853 0.72036 -3.3282 -0.444486 -0.447866 0.170578 
710 1 0.750384 0.74738 0.101421 0.325069 -3.29994 0.0404871 0.13654 0.066518 
351 1 0.751911 0.797561 0.047732 0.930655 -3.26698 0.149099 0.381659 0.172179 
349 1 0.698849 0.802359 0.00135373 0.716194 -3.23626 0.422067 -0.16687 -0.568921 
309 1 0.702753 0.698406 0.00560619 1.18605 -3.28134 0.286718 0.322781 -0.918397 
316 1 0.800084 0.747304 0.0538321 1.06475 -3.27638 0.238068 0.218013 -0.0903801 
355 1 0.84571 0.805113 0.0469059 1.75902 -3.30824 0.127804 -0.403686 0.40767 
753 1 0.799172 0.798146 0.0973483 0.451549 -3.36858 0.198335 0.231792 0.340809 
319 1 0.949711 0.702266 0.0521383 0.554418 -3.30029 0.247425 -0.41696 0.0602233 
320 1 0.904933 0.751215 0.054892 1.74207 -3.27984 -0.671587 0.151814 -0.495965 
357 1 0.896401 0.803434 0.00145138 0.936754 -3.30881 0.206043 -0.39796 -0.148 
321 1 1.0009 0.802469 0.000747372 0.157743 -3.28231 0.27204 -0.0690662 -0.0301349 
328 1 0.10083 0.850807 0.045962 0.667558 -3.3018 0.064891 0.0833399 0.368178 
322 1 0.0503895 0.850797 -0.00183489 0.368395 -3.30889 -0.137809 0.0141719 0.196425 
363 1 0.0513939 0.897179 0.045688 1.60103 -3.29088 -0.012016 0.406056 0.623418 
324 1 0.000461547 0.851665 0.0501769 0.578322 -3.31002 0.0706313 -0.152739 0.00116831 
325 1 0.103388 0.802747 -0.00294118 0.504385 -3.3543 -0.157829 -0.135189 0.090356 
365 1 0.098373 0.902478 -0.00259595 0.614242 -3.28891 0.360869 -0.265547 0.19461 
332 1 0.202701 0.854484 0.052766 1.63769 -3.3142 0.231165 -0.177279 -0.254417 
369 1 0.203637 0.901318 -0.000885683 0.69209 -3.22602 -0.349309 -0.283824 0.172641 
329 1 0.198045 0.797593 -0.00226671 0.784443 -3.27886 0.252775 0.341777 -0.34374 
326 1 0.154665 0.853564 0.000123118 1.0032 -3.28506 -0.393979 -0.16018 0.170275 
336 1 0.296081 0.848764 0.0476928 0.884895 -3.33473 0.0446785 0.181042 0.0394151 
733 1 0.300387 0.796543 0.0953012 1.05925 -3.25535 -0.170045 0.364717 0.582586 
335 1 0.352567 0.798686 0.049882 0.633773 -3.34266 0.0924951 -0.000406888 -0.227043 
340 1 0.400063 0.848403 0.0503507 0.171234 -3.244 -0.200813 0.123627 0.148502 
337 1 0.40198 0.803762 -0.00396675 1.42322 -3.30545 -0.373384 -0.338386 0.357973 
734 1 0.344629 0.847237 0.0988237 1.18497 -3.32999 0.407983 0.257607 -0.0740349 
334 1 0.35067 0.85019 0.00336658 1.01248 -3.29921 -0.133925 -0.0481903 -0.57949 
343 1 0.553422 0.802405 0.0457759 1.38468 -3.29545 0.408078 -0.623534 0.24219 
344 1 0.504802 0.845698 0.0507133 2.74561 -3.26339 -0.463526 0.790261 0.200029 
738 1 0.449287 0.850341 0.0988698 0.322432 -3.30696 0.530504 -0.00170415 0.123549 
379 1 0.446379 0.898743 0.0527925 0.862174 -3.27011 0.43544 0.237818 -0.228625 
781 1 0.4999 0.903998 0.100359 0.819494 -3.29098 -0.501893 -0.502568 0.196422 
381 1 0.495875 0.901556 0.005754 2.02859 -3.31332 0.285547 0.199791 -0.662702 
348 1 0.598228 0.853347 0.0529091 1.14996 -3.31335 -0.0683396 -0.111127 -0.546296 
387 1 0.649922 0.903323 0.0488863 0.807038 -3.32822 -0.0312296 -0.150634 -0.161121 
746 1 0.649591 0.844535 0.100754 1.35019 -3.21433 0.233906 0.206381 -0.127266 
785 1 0.601467 0.897552 0.0992378 0.855332 -3.31693 0.0623449 0.605949 0.2793 
352 1 0.702188 0.847805 0.0506073 0.928188 -3.27538 -0.369275 0.381961 0.139417 
350 1 0.744803 0.852602 0.000296833 1.07585 -3.19763 0.510746 -0.252877 0.0447192 
389 1 0.70262 0.902578 -0.00043874 0.558408 -3.2806 -0.179355 0.206296 0.0877479 
749 1 0.702643 0.801144 0.100944 0.727344 -3.29467 -0.49622 -0.790575 -0.29891 
750 1 0.748311 0.848551 0.100289 0.381021 -3.29353 0.403084 0.266156 0.177916 
356 1 0.794135 0.850997 0.0472775 0.870537 -3.29578 0.374202 0.000376206 0.298691 
354 1 0.846578 0.85417 -0.000240409 0.514408 -3.28136 0.275471 -0.191807 -0.000481087 
359 1 0.949944 0.803075 0.0478621 0.98284 -3.27838 0.199009 -0.0701423 0.589818 
360 1 0.901022 0.85009 0.0500813 0.41518 -3.32997 -0.255581 0.260218 0.14614 
358 1 0.951216 0.849711 0.000792167 0.573109 -3.2783 -0.0933703 0.250963 0.103885 
368 1 0.0975843 0.949998 0.0485333 0.216302 -3.35825 0.408725 0.0813683 0.0246131 
364 1 0.000224049 0.950309 0.0519559 0.5497 -3.23772 -0.280813 -0.17842 -0.60857 
361 1 -0.00476458 0.904269 0.00438572 1.90027 -3.31583 0.127102 -0.616307 -0.21694 
1 1 -0.0044648 0.99578 0.00419696 1.98432 -3.2539 -0.106517 0.134352 -0.634014 
362 1 0.0485613 0.948444 5.27358e-05 0.299486 -3.28235 -0.0433012 0.254388 -0.0699117 
409 1 0.202278 1.00207 0.104623 1.04368 -3.27852 -0.441027 -0.00230514 -0.345782 
367 1 0.151892 0.901706 0.0494247 0.28002 -3.34466 -0.495905 -0.0626147 0.0239613 
372 1 0.195654 0.951569 0.0497435 0.939329 -3.3087 0.539189 0.111635 0.0683512 
371 1 0.249969 0.904733 0.0473006 1.46821 -3.2684 -0.238619 -0.47147 0.441061 
376 1 0.302079 0.947423 0.0502039 0.716358 -3.30808 -0.00191578 0.471069 -0.134099 
770 1 0.24839 0.950286 0.0997411 0.249925 -3.33163 0.0101392 -0.00656277 -0.0606194 
370 1 0.24913 0.949077 -0.000997629 0.363696 -3.30373 0.169501 0.515146 -0.000947924 
373 1 0.300478 0.900265 -0.00117243 0.332284 -3.30142 0.126818 -0.185714 0.205591 
777 1 0.401078 0.898748 0.100618 0.354903 -3.23402 -0.413783 0.155666 -0.0537389 
375 1 0.35116 0.896129 0.0521435 0.882159 -3.32421 -0.0734258 0.438192 -0.211498 
380 1 0.399857 0.950901 0.0497254 0.254427 -3.33912 -0.288561 -0.407279 0.235232 
374 1 0.350463 0.949832 -0.000102901 0.0952557 -3.28673 -0.113123 -0.136182 0.0949668 
23 1 0.546128 0.999154 0.0511029 0.543585 -3.27452 0.434433 0.311716 -0.157035 
19 1 0.443741 1.00114 0.0470119 1.29451 -3.28048 0.862985 -0.158823 0.404226 