LAMMPS (5 May 2020)
OMP_NUM_THREADS environment is not set. Defaulting to 1 thread. (src/comm.cpp:94)
  using 1 OpenMP thread(s) per MPI task
# Input file for uniaxial compressive loading of single crystal aluminum
# Mark Tschopp, November 2010

# ------------------------ INITIALIZATION ----------------------------
units 		metal
dimension	3
boundary	p	p	p
atom_style	atomic
variable latparam equal 4.05

# ----------------------- ATOM DEFINITION ----------------------------
lattice		fcc ${latparam}
lattice		fcc 4.05
Lattice spacing in x,y,z = 4.05 4.05 4.05
region		whole block 0 10 0 10 0 10
create_box	1 whole
Created orthogonal box = (0 0 0) to (40.5 40.5 40.5)
  1 by 1 by 1 MPI processor grid

region		upper block INF INF INF INF INF INF units box
lattice 	fcc ${latparam} orient x 1 0 0 orient y 0 1 0 orient z 0 0 1
lattice 	fcc 4.05 orient x 1 0 0 orient y 0 1 0 orient z 0 0 1
Lattice spacing in x,y,z = 4.05 4.05 4.05
create_atoms	1 region upper
Created 4000 atoms
  create_atoms CPU = 0.00130369 secs

# ------------------------ FORCE FIELDS ------------------------------
pair_style	eam/alloy
pair_coeff	* * Al99.eam.alloy Al

# ------------------------- SETTINGS ---------------------------------
compute csym all centro/atom fcc
compute peratom all pe/atom

######################################
# EQUILIBRATION
reset_timestep	0
timestep 0.001
velocity all create 300 12345 mom yes rot no
fix 1 all npt temp 300 300 1 iso 0 0 1 drag 1

# Set thermo output
thermo 1000
thermo_style custom step lx ly lz press pxx pyy pzz pe temp

# Run for at least 10 picosecond (assuming 1 fs timestep)
run 20000
Neighbor list info ...
  update every 1 steps, delay 10 steps, check yes
  max neighbors/atom: 2000, page size: 100000
  master list distance cutoff = 8.28721
  ghost atom cutoff = 8.28721
  binsize = 4.1436, bins = 10 10 10
  2 neighbor lists, perpetual/occasional/extra = 1 1 0
  (1) pair eam/alloy, perpetual
      attributes: half, newton on
      pair build: half/bin/atomonly/newton
      stencil: half/bin/3d/newton
      bin: standard
  (2) compute centro/atom, occasional
      attributes: full, newton on
      pair build: full/bin/atomonly
      stencil: full/bin/3d
      bin: standard
Per MPI rank memory allocation (min/avg/max) = 5.218 | 5.218 | 5.218 Mbytes
Step Lx Ly Lz Press Pxx Pyy Pzz PotEng Temp 
       0         40.5         40.5         40.5    2496.1233    2446.9902    2534.6541    2506.7256       -13440          300 
    1000    40.557742    40.557742    40.557742    780.10773    768.50566    776.04263    795.77489   -13363.126    169.17189 
    2000    40.573581    40.573581    40.573581    85.256296    2.5136289     170.1902    83.065057   -13356.006    178.00901 
    3000    40.580468    40.580468    40.580468    225.24624    185.42636     364.5654    125.74696   -13346.557    182.73335 
    4000    40.588153    40.588153    40.588153    36.447911    18.973498    31.021312    59.348922   -13340.448     193.9013 
    5000    40.591847    40.591847    40.591847     182.0974    68.023328    389.00854    89.260333   -13335.805    207.68103 
    6000    40.595764    40.595764    40.595764    321.87463    190.03025    561.47818    214.11546   -13329.141    217.01995 
    7000    40.603317    40.603317    40.603317    362.92787    368.19237    401.37129    319.21994   -13320.261     221.3218 
    8000    40.611092    40.611092    40.611092    101.44517    163.35387   -22.286553    163.26819   -13316.435     234.4251 
    9000    40.618228    40.618228    40.618228    48.335417   -28.184491    19.629696    153.56105   -13314.162    249.30546 
   10000    40.625527    40.625527    40.625527    23.640617    47.427825   -67.271183    90.765209   -13307.557    254.39739 
   11000    40.629423    40.629423    40.629423    14.930363    86.558582    -86.67342    44.905927   -13303.421    262.70399 
   12000    40.632725    40.632725    40.632725   -61.882766    19.125643   -151.76692   -53.007018   -13301.159    272.96087 
   13000    40.636203    40.636203    40.636203    36.702053    84.733127      142.408   -117.03497   -13298.549    280.79394 
   14000    40.641711    40.641711    40.641711   -181.21685   -153.98286   -220.08985   -169.57783   -13295.754     286.5089 
   15000    40.645191    40.645191    40.645191   -129.63386   -64.948063   -286.84124   -37.112278   -13290.696    286.09792 
   16000    40.645446    40.645446    40.645446   -39.533108   -10.232785   -21.609937   -86.756601   -13289.355    291.21878 
   17000    40.648885    40.648885    40.648885   -148.25118   -220.97994   -282.82076    59.047163   -13288.768    296.23678 
   18000    40.646623    40.646623    40.646623    67.624311    74.684517    59.767756    68.420661   -13287.047    297.52126 
   19000    40.645806    40.645806    40.645806    131.77506    4.1189043    349.42952     41.77676   -13285.602    297.93361 
   20000     40.65015     40.65015     40.65015   -120.83606   -65.442049   -112.76929   -184.29685   -13286.614    301.79878 
Loop time of 344.956 on 1 procs for 20000 steps with 4000 atoms

Performance: 5.009 ns/day, 4.791 hours/ns, 57.978 timesteps/s
99.7% CPU use with 1 MPI tasks x 1 OpenMP threads

MPI task timing breakdown:
Section |  min time  |  avg time  |  max time  |%varavg| %total
---------------------------------------------------------------
Pair    | 335.51     | 335.51     | 335.51     |   0.0 | 97.26
Neigh   | 0          | 0          | 0          |   0.0 |  0.00
Comm    | 1.9155     | 1.9155     | 1.9155     |   0.0 |  0.56
Output  | 0.0030558  | 0.0030558  | 0.0030558  |   0.0 |  0.00
Modify  | 6.5355     | 6.5355     | 6.5355     |   0.0 |  1.89
Other   |            | 0.9882     |            |       |  0.29

Nlocal:    4000 ave 4000 max 4000 min
Histogram: 1 0 0 0 0 0 0 0 0 0
Nghost:    8195 ave 8195 max 8195 min
Histogram: 1 0 0 0 0 0 0 0 0 0
Neighs:    280000 ave 280000 max 280000 min
Histogram: 1 0 0 0 0 0 0 0 0 0
FullNghs:  0 ave 0 max 0 min
Histogram: 1 0 0 0 0 0 0 0 0 0

Total # of neighbors = 280000
Ave neighs/atom = 70
Neighbor list builds = 0
Dangerous builds = 0
unfix 1

# Store final cell length for strain calculations
variable tmp equal "lx"
variable L0 equal ${tmp}
variable L0 equal 40.6501497913319
print "Initial Length, L0: ${L0}"
Initial Length, L0: 40.6501497913319

######################################
# DEFORMATION
reset_timestep	0

fix		1 all npt temp 300 300 1 y 0 0 1 z 0 0 1 drag 1
variable srate equal 1.0e10
variable srate1 equal "-v_srate / 1.0e12"
fix		2 all deform 1 x erate ${srate1} units box remap x
fix		2 all deform 1 x erate -0.01 units box remap x

# Output strain and stress info to file
# for units metal, pressure is in [bars] = 100 [kPa] = 1/10000 [GPa]
# p2, p3, p4 are in GPa
variable strain equal "(lx - v_L0)/v_L0"
variable p1 equal "v_strain"
variable p2 equal "-pxx/10000"
variable p3 equal "-pyy/10000"
variable p4 equal "-pzz/10000"
fix def1 all print 100 "${p1} ${p2} ${p3} ${p4}" file Al_comp_100.def1.txt screen no

# Use cfg for AtomEye
#dump 		1 all cfg 250 dump.comp_*.cfg mass type xs ys zs c_csym c_peratom fx fy fz
#dump_modify     1 element Al

# Dump to cfg for Ovito post processing
dump     1 all custom 250 dump.comp.* id type xs ys zs c_csym c_peratom fx fy fz

# Dump for Paraview post-processing
# dump    1 all vtk 250 dump.comp_*.vtk id type xs ys zs c_csym c_peratom fx fy fz

# Display thermo
thermo 	1000
thermo_style	custom step v_strain temp v_p2 v_p3 v_p4 ke pe press

run		20000
Per MPI rank memory allocation (min/avg/max) = 8.934 | 8.934 | 8.934 Mbytes
Step v_strain Temp v_p2 v_p3 v_p4 KinEng PotEng Press 
       0 -1.0487677e-15    301.79878 0.0065442049  0.011276929  0.018429685    156.00321   -13286.614   -120.83606 
    1000        -0.01     297.5507  -0.65738725  0.016829803 -0.036979164    153.80732    -13283.95    2258.4554 
    2000        -0.02    297.66783   -1.2424023  0.019822571 -0.0026185411    153.86787   -13280.861    4083.9943 
    3000        -0.03    303.46111   -1.8682352 -0.022755099  -0.00646394    156.86248   -13277.993    6324.8475 
    4000        -0.04    296.35309   -2.5019628 -0.0078382416 -0.033902369    153.18827   -13265.715    8479.0112 
    5000        -0.05    297.84463   -3.0675761  0.038237056  0.030455532    153.95926   -13255.046    9996.2783 
    6000        -0.06    299.84218   -3.7258358  0.015886528  0.038511166    154.99182   -13241.708    12238.127 
    7000        -0.07     296.7827   -4.4765691  -0.07660841 -0.044275516    153.41034   -13222.504    15324.843 
    8000        -0.08    294.98699   -5.0658702 -0.0012808136 0.0089660605    152.48212   -13200.287    16860.616 
    9000        -0.09    294.90396   -5.5697134 0.0068934922 -0.030966797     152.4392   -13175.116    18645.956 
   10000         -0.1    287.88846   -5.9838984 -0.052986653 -0.087275361    148.81281   -13142.955    20413.868 
   11000        -0.11    299.93691   -5.1119163 -0.045685443 -0.079516989    155.04078   -13119.069    17457.063 
   12000        -0.12    384.05722  -0.59913071 -0.026929719 -0.031186594    198.52353   -13170.185    2190.8234 
   13000        -0.13    391.80128  -0.78401122  0.057501247 -0.017929589    202.52652   -13193.252    2481.4652 
   14000        -0.14    381.90455   -1.0756568 0.0034085555   0.11959445    197.41079   -13204.383    3175.5125 
   15000        -0.15    382.86828   -1.3987804  0.069622846 -0.090697883    197.90895   -13222.542    4732.8516 
   16000        -0.16    365.58095   -2.1865653 -0.026763306 -0.036102516    188.97293   -13224.666    7498.1038 
   17000        -0.17    346.02732   -2.9804173  0.016662993 -0.032717883    178.86544   -13218.318    9988.2407 
   18000        -0.18    341.30747   -3.8471386 -0.020730064   0.11023444     176.4257   -13212.299    12525.447 
   19000        -0.19    335.29974    -4.674187  0.067138508 -0.0064004628    173.32023   -13198.512    15378.163 
   20000         -0.2    309.39479   -5.5030364 0.0043948195  0.013068495    159.92967   -13167.566    18285.244 
Loop time of 419.221 on 1 procs for 20000 steps with 4000 atoms

Performance: 4.122 ns/day, 5.823 hours/ns, 47.708 timesteps/s
99.8% CPU use with 1 MPI tasks x 1 OpenMP threads

MPI task timing breakdown:
Section |  min time  |  avg time  |  max time  |%varavg| %total
---------------------------------------------------------------
Pair    | 400.12     | 400.12     | 400.12     |   0.0 | 95.44
Neigh   | 1.3478     | 1.3478     | 1.3478     |   0.0 |  0.32
Comm    | 2.036      | 2.036      | 2.036      |   0.0 |  0.49
Output  | 5.1381     | 5.1381     | 5.1381     |   0.0 |  1.23
Modify  | 9.5459     | 9.5459     | 9.5459     |   0.0 |  2.28
Other   |            | 1.032      |            |       |  0.25

Nlocal:    4000 ave 4000 max 4000 min
Histogram: 1 0 0 0 0 0 0 0 0 0
Nghost:    7136 ave 7136 max 7136 min
Histogram: 1 0 0 0 0 0 0 0 0 0
Neighs:    290286 ave 290286 max 290286 min
Histogram: 1 0 0 0 0 0 0 0 0 0
FullNghs:  580644 ave 580644 max 580644 min
Histogram: 1 0 0 0 0 0 0 0 0 0

Total # of neighbors = 580644
Ave neighs/atom = 145.161
Neighbor list builds = 79
Dangerous builds = 0

######################################
# SIMULATION DONE
print "All done"
All done
Total wall time: 0:12:44
