# vtk DataFile Version 4.0
Generated by LAMMPS
ASCII
DATASET POLYDATA
POINTS 4000 float
6.87856 -1.40341 1.33221 4.67577 -2.96779 1.52702 4.8827 -0.818067 -0.65757 
8.59433 -3.69948 1.53569 6.70648 -3.3126 3.66205 10.7253 -2.17537 1.53594 
8.96602 0.456768 1.30843 12.8941 -0.376164 1.40983 8.66939 -1.58119 3.4876 
11.0026 -0.262386 3.73578 12.6692 -2.66732 3.51537 14.5015 -2.81694 1.27767 
16.6078 -1.27699 1.53355 14.6077 -0.75132 3.68715 16.2927 -2.97989 3.62683 
18.3298 -3.4258 1.58496 20.3798 -1.66683 1.46285 22.4444 -0.0507854 1.61247 
20.7194 0.261029 3.6543 18.6864 -1.57086 3.57818 20.2209 -3.9239 3.50654 
22.256 -2.19972 3.52643 24.1266 -2.56844 1.36112 26.1376 -0.64135 1.26711 
24.1953 -0.252887 3.55935 27.6565 -3.02491 1.38438 29.8583 -1.51537 1.29791 
31.9805 -1.86222 -0.69574 31.553 -3.92313 1.35817 30.022 0.853336 3.49525 
28.1255 -1.13303 3.54756 29.7331 -3.58362 3.52598 29.7401 -3.4268 -0.682942 
31.9344 0.275138 1.37534 35.773 -0.421929 1.39417 33.7971 -2.23299 1.46494 
35.6662 -2.45602 3.57621 35.642 -2.7124 -0.510961 5.25023 1.1688 1.46576 
7.39145 3.0216 1.42639 7.18165 0.986247 3.4908 5.39987 3.35183 3.49687 
9.5941 4.5493 1.40536 11.1636 2.0856 1.28498 9.34021 2.44917 3.47631 
11.5198 4.06647 3.48788 12.917 1.65612 3.56593 14.8237 1.25593 1.44628 
13.4318 3.57054 1.45709 16.9056 3.02435 1.46731 15.1224 3.36303 3.64505 
14.9869 3.45554 -0.751653 18.7024 0.534393 1.50752 18.8997 2.72659 3.42521 
20.8003 2.18227 1.50713 22.7674 2.05796 3.51465 20.846 4.71101 3.4371 
18.9699 4.83636 1.52518 22.5652 1.94978 -0.706327 22.8676 3.99557 1.49175 
24.4919 1.60714 1.21461 26.4477 3.30627 1.46852 24.6861 3.87704 3.63687 
24.6929 3.49428 -0.799223 26.2006 1.30835 3.41372 26.2326 1.37868 -0.666358 
28.2311 1.06508 1.27024 30.4966 2.6838 1.48468 28.3338 2.87872 3.5163 
28.4955 2.97475 -0.565053 30.6696 4.81601 -0.583614 32.6416 4.22501 1.19443 
32.4165 2.18951 -0.743441 36.4466 3.62986 1.32534 34.194 1.93435 1.37861 
36.2366 1.6792 3.451 34.6137 4.0248 -0.676882 7.71315 4.77808 3.41388 
5.83575 5.34347 1.22563 3.9827 7.70469 1.42277 7.94957 6.94864 1.40891 
8.12632 8.85814 3.52942 11.767 5.94193 1.37538 10.1345 8.56136 1.32625 
9.70633 6.53191 3.53042 11.8218 8.18057 3.53957 15.4145 5.55802 1.43377 
13.6819 7.78581 1.48887 17.3627 7.3649 1.5349 17.1902 5.28463 3.60302 
13.652 5.70069 3.65653 15.551 7.69552 3.60517 19.4409 9.11406 1.44084 
19.2725 7.08772 3.56436 21.3112 6.6762 1.48116 21.4432 8.58978 3.55813 
23.396 8.29854 1.36627 25.0478 5.64228 1.38552 26.8781 5.50731 3.53614 
27.0621 7.49751 1.47249 23.1424 6.24499 3.39298 30.9582 6.66568 1.43604 
28.6966 5.05825 1.41603 29.1893 7.17432 3.30171 29.357 9.08676 1.38561 
31.2694 8.74341 3.45044 34.7787 6.08254 1.40188 33.0688 8.48405 1.25451 
34.9822 8.1473 3.37123 36.6445 5.7931 3.57341 33.0111 6.35765 3.47049 
6.21977 9.25198 1.39446 4.76673 11.6479 1.44825 4.56258 9.56632 3.42538 
6.69569 13.6324 1.20926 8.3217 10.861 1.4448 8.62832 13.0552 3.61323 
10.3014 12.6298 1.57596 12.1483 10.179 1.33815 10.1764 10.5666 3.55988 
14.0379 11.9613 1.47321 15.7224 9.59862 1.42225 14.2053 9.92874 -0.76825 
17.8823 11.3366 1.48859 17.5436 9.50954 -0.626095 16.0475 11.8235 -0.723817 
19.9947 13.3025 1.45424 19.7331 11.231 -0.56624 21.6445 10.7306 1.46922 
21.7575 12.7183 3.4636 21.9405 12.7593 -0.538688 23.7036 12.5409 1.50536 
25.3571 10.0571 1.35835 23.323 10.261 3.39216 25.6981 11.9183 3.40362 
23.5605 10.727 -0.687153 25.6812 12.0394 -0.657845 27.652 11.4886 1.47336 
31.5219 10.7447 1.51269 29.6967 13.1828 1.48839 29.6336 11.0693 3.51455 
27.9353 13.5479 3.55634 29.5403 11.1407 -0.652804 35.2299 10.079 1.3962 
33.7084 12.3168 1.4777 33.4491 10.4704 3.55503 35.6835 11.8767 3.50935 
4.92898 16.0284 1.39939 7.17229 17.5098 1.51454 6.92216 15.6425 -0.623197 
4.81087 13.6594 3.71455 6.96724 15.5382 3.51994 8.90066 15.1918 1.49024 
10.902 16.8259 1.65611 9.07603 17.3277 -0.612571 12.5283 14.3211 1.54787 
12.8926 16.4866 -0.485101 10.6365 14.8227 3.57876 8.96856 17.1863 3.57765 
14.7479 16.1126 1.58223 16.1479 13.7845 1.63979 16.916 18.025 1.62004 
14.5311 14.1711 -0.534622 18.3619 15.5703 1.54323 22.2282 14.7862 1.57514 
20.4331 17.242 1.39016 20.3203 15.2312 -0.667637 23.9875 14.5643 -0.725136 
24.3875 16.6958 1.37018 25.9207 14.2663 1.30021 26.3104 16.0871 3.52147 
26.2407 16.145 -0.605117 24.1856 14.3962 3.5787 28.2235 15.6712 1.42067 
30.5648 17.3463 1.54679 30.266 15.0654 -0.825077 28.3805 17.5994 3.61095 
30.0061 15.1942 3.50926 31.9104 14.7316 1.59711 32.3352 16.8815 -0.590138 
36.0361 13.9605 1.58453 34.255 16.3875 1.38003 32.2425 16.8936 3.54811 
33.982 14.3854 3.48532 5.27443 17.9486 3.67122 5.59116 19.9061 1.48457 
7.63761 21.7287 1.4832 7.35743 19.7302 3.63145 7.33433 19.6565 -0.598743 
5.8009 22.0912 -0.57779 9.41091 19.2094 1.40157 11.6127 21.0128 1.56496 
11.411 18.7353 -0.331215 13.2738 18.4506 1.61877 9.72457 21.3705 -0.563081 
15.3167 20.3798 1.55996 17.359 21.8955 1.48566 17.2618 19.8726 3.66576 
15.5191 22.5061 3.63677 15.0027 18.365 -0.400786 13.4325 20.6601 -0.51298 
15.5568 22.4086 -0.681944 19.1294 19.7558 1.43309 19.3595 21.578 3.63522 
20.8607 19.2735 3.67403 21.1549 21.4702 1.25182 20.9285 19.4101 -0.720538 
26.5738 18.1913 1.37469 22.5959 18.9105 1.52811 22.941 21.019 3.40742 
24.8185 20.6171 1.38182 26.9658 22.1792 1.25458 24.6267 18.4798 3.4006 
26.7497 20.0207 3.40597 24.6314 18.6809 -0.757264 23.2332 21.0819 -0.788641 
26.7266 20.4648 -0.573147 28.7833 19.7902 1.23588 30.6841 19.2948 -0.685445 
30.9284 21.4402 1.5854 30.479 19.4341 3.411 28.7637 21.6794 3.31445 
32.5175 19.0169 1.48629 36.1319 18.3822 1.48995 34.8135 20.6703 1.5305 
36.4794 20.4773 3.56116 36.5675 20.5741 -0.543268 34.3494 18.7301 -0.516732 
32.8218 21.1057 3.7777 34.4805 18.6439 3.53835 3.91339 22.457 1.47242 
5.91201 24.2268 1.34683 4.22017 24.6132 3.59829 4.58441 26.6587 1.55129 
6.12808 26.3822 -0.754034 8.05903 25.7669 1.36839 6.36223 26.2588 3.73831 
8.0393 23.7347 -0.611145 9.90608 23.2857 1.4323 12.0714 25.0227 1.59893 
10.0886 25.4573 -0.604264 11.7011 23.138 -0.63717 9.92175 25.4083 3.59926 
13.752 22.5122 1.4211 15.6756 24.346 1.52047 13.8371 24.6995 3.75038 
14.2065 26.7902 1.52085 14.0738 24.7997 -0.700092 16.0105 26.3941 -0.597373 
17.9964 25.9945 1.41226 19.649 23.6402 1.34855 21.7283 25.4122 1.36406 
21.4169 23.3243 3.66317 19.8977 25.6384 3.56742 23.3577 23.0351 1.44021 
25.2081 22.5462 3.40665 25.621 24.6167 1.33459 23.6272 25.0907 3.47928 
27.5807 26.3455 1.33815 29.2952 23.8026 1.46387 31.3907 25.5641 1.56286 
33.1139 23.1511 1.60564 35.2839 25.1149 1.45506 35.096 22.8269 3.54638 
33.3248 25.1751 3.51068 6.68809 28.2279 1.46392 4.92656 30.8082 1.41267 
6.92925 30.4088 -0.462487 8.4694 27.8496 3.73866 8.52151 27.838 -0.486445 
6.86456 30.3204 3.51133 4.6709 28.8656 -0.593554 10.3491 27.4623 1.71397 
8.7099 29.878 1.52532 10.5384 29.5428 -0.58217 12.1347 27.1198 -0.452546 
12.1913 27.0335 3.68281 12.4405 29.2099 1.68398 12.6369 31.3201 -0.422119 
14.7626 30.6561 1.56104 16.448 28.3064 1.38027 16.6538 30.3904 3.66382 
14.3521 28.8443 -0.699524 18.5546 30.0727 1.37233 19.9724 27.6659 1.28587 
18.098 28.1027 -0.76182 20.3849 29.7125 -0.597921 22.2978 29.3775 1.66488 
22.0078 27.3846 -0.784284 20.1362 29.8338 3.58464 23.7866 27.0296 1.30475 
24.1079 29.0515 -0.615481 26.0933 28.6565 1.48754 26.1851 30.8293 3.72973 
24.4058 30.8373 1.57076 27.981 28.4354 -0.666997 28.0718 30.4818 1.57014 
29.9293 28.0178 1.35296 32.0136 29.7794 1.52964 30.1057 30.0557 -0.59321 
31.7914 27.6999 -0.739635 33.3825 27.3458 1.42327 35.5738 29.1424 1.62313 
35.311 27.0786 -0.578552 33.7543 29.3881 -0.544167 7.01913 32.5296 1.50324 
5.26955 34.8085 1.36536 5.10846 32.6978 3.67972 7.29744 34.3885 -0.740714 
10.7445 31.694 1.53988 9.15476 34.2078 1.50082 11.1043 33.8353 3.64903 
8.98914 32.1329 -0.64228 13.0103 33.1571 1.57077 13.1228 35.474 -0.723001 
11.2379 36.0154 1.56296 13.1562 35.5904 3.62043 14.8572 35.1127 1.55156 
16.9497 32.6472 1.42828 16.8119 34.8208 3.42073 14.8667 33.1737 -0.433051 
17.0594 34.592 -0.502054 19.0226 34.2175 1.63264 18.5417 32.3683 3.50047 
18.7125 32.228 -0.495535 20.5884 31.8085 1.5056 20.9926 33.743 3.55084 
22.6616 31.4567 3.57698 22.721 31.329 -0.690662 20.9032 33.8438 -0.656855 
22.7466 33.317 1.4089 26.4962 32.8863 1.27082 24.8355 35.1382 1.35963 
24.6634 33.2454 3.51463 26.7616 34.6487 -0.830214 22.8821 35.6233 3.56203 
26.7119 34.8442 3.49495 28.6688 34.5843 1.34445 30.2631 32.1759 1.65752 
32.0854 31.7824 3.75696 30.3747 34.0687 -0.85065 32.0863 31.9181 -0.719818 
32.2618 33.8901 1.54853 33.9251 31.5626 1.43566 36.0294 33.0295 1.4914 
34.2636 33.5594 3.57 7.52616 36.3826 1.40167 5.83089 38.9845 1.55982 
7.61784 38.7736 -0.731081 9.41997 38.2633 1.51095 11.3455 37.9276 -0.687664 
11.672 39.8716 1.66851 9.28628 36.2867 -0.680438 13.4251 37.5086 1.27522 
15.6334 39.0161 1.52695 15.2916 37.0293 -0.772743 17.2271 36.7135 1.34775 
17.6299 38.624 3.6241 13.7339 39.6601 -0.512862 19.5011 38.2329 1.66789 
21.0788 35.9397 1.50113 21.6812 40.0533 1.41341 21.3362 37.9652 3.54526 
23.3358 37.4874 1.30727 27.088 36.9114 1.47635 25.3243 39.2073 1.38723 
23.5213 39.5591 -0.796793 30.7338 36.3151 1.4377 29.0404 38.6432 1.53118 
28.7224 36.5975 3.66578 34.308 35.4943 1.4873 36.7325 39.4233 3.69699 
36.4552 37.335 1.40977 32.7053 38.0365 1.3825 34.6603 37.6186 3.34116 
34.7859 39.8582 1.47841 34.6335 37.7601 -0.578966 32.5883 35.7863 3.56901 
6.34735 43.2742 1.45212 4.26599 41.384 1.474 6.05352 41.1392 -0.692207 
4.2547 43.4703 -0.681636 7.74885 40.7325 1.46602 8.31149 42.6323 3.47848 
9.91679 40.2795 3.76243 10.0561 42.2625 1.3952 12.3199 43.8782 1.43909 
11.9784 41.925 3.72707 12.1322 41.9988 -0.636 14.0461 41.5603 1.52348 
14.3343 43.5153 -0.640003 15.9749 41.1778 -0.749134 16.1966 43.3262 1.39142 
17.9001 40.7594 1.393 14.3505 43.4686 3.57946 20.1008 42.3811 1.32006 
18.0427 42.907 -0.717042 21.9731 44.2007 1.33352 18.0362 42.9148 3.46607 
19.5976 40.5314 3.5901 21.8881 42.0084 3.39929 22.0049 42.0034 -0.698576 
[...]
POINT_DATA 4000
FIELD FieldData 6
id 1 4000 int
7 3 2 372 766 11 12 16 409 
410 413 15 20 414 417 19 24 63 
461 418 421 422 28 67 465 32 36 
34 35 473 469 430 33 75 4 40 
401 38 8 47 406 445 52 51 449 
450 453 55 56 60 454 54 59 458 
64 462 501 99 62 103 68 72 505 
66 466 69 71 76 470 70 113 80 
74 43 79 402 78 446 48 83 87 
486 91 92 489 490 95 96 100 497 
493 494 139 498 104 541 108 107 509 
112 502 115 111 513 116 517 44 119 
481 442 478 88 123 482 128 127 526 
132 131 529 136 135 133 140 137 134 
144 141 143 542 142 148 147 545 549 
145 146 151 120 155 514 553 153 84 
159 518 521 163 168 165 522 565 167 
172 166 171 170 569 566 176 175 180 
173 179 183 184 181 185 187 152 550 
189 546 156 195 154 593 554 160 197 
124 199 597 558 562 203 208 605 205 
202 207 212 209 211 206 215 220 617 
614 174 213 214 219 621 582 223 221 
191 188 586 192 231 589 590 186 225 
190 196 194 235 594 633 200 164 239 
601 201 198 637 598 204 243 641 244 
242 248 642 245 247 251 249 210 646 
216 255 653 256 253 254 259 224 228 
625 622 227 629 232 626 271 236 275 
240 279 638 677 283 284 285 685 246 
682 281 252 287 289 250 650 291 290 
295 260 658 293 264 263 258 262 268 
265 662 267 266 272 709 307 270 311 
276 315 313 274 280 319 278 317 288 
323 721 325 292 327 690 286 296 333 
331 694 300 299 698 294 298 304 701 
301 303 702 705 305 302 308 312 347 
706 349 745 749 351 316 714 353 314 
355 320 359 757 328 363 365 332 330 
336 326 335 340 337 339 738 334 344 
343 383 742 348 352 387 385 356 391 
750 360 761 324 395 797 399 358 754 
368 364 362 1 367 769 730 371 376 
773 373 375 374 377 380 379 774 384 
378 23 778 781 782 382 388 27 386 
392 31 396 29 437 39 400 794 398 
405 407 768 805 1166 411 772 412 416 
810 809 415 420 817 419 424 463 426 
428 467 826 434 432 869 471 830 436 
873 438 475 403 440 801 838 408 447 
806 845 846 451 452 850 853 455 456 
457 460 857 459 499 464 901 862 503 
468 507 905 866 472 474 476 874 909 
870 477 441 479 443 404 877 841 802 
485 448 487 483 488 885 842 492 491 
495 496 894 897 500 898 539 941 504 
543 506 508 512 902 906 945 511 480 
515 913 444 519 881 878 525 882 523 
528 925 527 532 531 530 533 535 536 
537 534 937 540 538 577 579 938 544 
977 981 548 547 949 510 516 557 520 
555 910 957 914 484 559 922 563 568 
567 572 570 571 575 573 576 574 615 
581 578 580 585 583 584 978 985 552 
551 950 946 556 993 595 954 561 560 
997 524 599 602 603 608 604 1005 609 
606 607 612 611 1006 613 610 616 620 
1010 619 588 982 587 591 592 631 1029 
986 989 990 596 635 1033 994 600 564 
639 1037 645 643 1042 644 1045 648 649 
647 1049 652 657 651 655 656 618 1050 
1018 623 624 628 1025 1022 627 669 632 
1026 1069 630 634 673 1030 671 636 675 
640 679 681 683 684 1085 689 693 687 
688 1086 691 654 660 1054 659 1058 661 
664 663 1062 665 668 1061 1065 666 667 
1066 707 672 1109 670 711 674 713 676 
715 678 717 718 680 719 1118 725 723 
724 1122 1121 686 692 727 1125 1090 695 
1093 697 700 1097 1094 699 704 703 1105 
708 712 1106 747 1149 1145 1110 710 753 
751 716 1153 755 758 720 759 1157 1158 
760 726 722 728 763 1161 729 733 696 
731 1129 736 734 737 735 740 739 741 
744 743 1142 746 785 748 789 752 787 
793 756 791 1193 799 1154 795 800 1197 
762 765 767 764 1165 732 1162 1169 770 
771 776 1170 1130 1173 777 775 780 779 
1174 783 784 423 1178 425 786 788 427 
1186 429 790 792 433 431 796 798 439 
435 803 807 1202 1205 811 1172 813 816 
814 815 820 1217 822 821 818 819 861 
824 863 865 828 867 1265 832 871 1234 
875 836 840 804 1277 1238 1206 808 847 
1245 1246 812 849 851 852 1249 1250 856 
854 855 860 1257 858 859 864 1261 1301 
903 868 907 1266 1305 872 876 1273 1270 
1313 1274 880 843 879 1241 1278 848 883 
886 887 1285 890 889 891 892 1289 893 
895 896 900 899 939 904 1298 1341 943 
908 912 1302 1309 917 911 915 916 1310 
1314 844 919 1242 888 923 928 927 926 
929 932 930 931 1326 934 1337 933 935 
936 940 979 1338 944 1342 942 948 947 
1346 951 920 955 1357 953 1349 1353 918 
921 884 959 1318 1321 965 962 963 968 
1322 969 966 967 972 970 971 1370 973 
976 974 975 1015 1017 980 983 984 1385 
987 952 1389 956 1393 960 1354 995 1350 
961 958 924 1361 999 1358 1397 1002 1003 
1008 1402 1009 1007 1012 1406 1011 1013 1014 
1016 1020 1417 1413 1021 1019 1023 1421 988 
991 992 1031 1390 996 1035 1394 1433 1001 
1000 998 1437 1401 964 1039 1398 1041 1043 
1044 1004 1048 1046 1047 1052 1053 1057 1055 
1051 1454 1056 1414 1024 1059 1028 1461 1422 
1027 1426 1032 1469 1071 1430 1034 1073 1036 
1075 1434 1038 1077 1040 1079 1438 1081 1082 
1083 1084 1481 1482 1089 1087 1088 1091 1450 
1095 1060 1493 1497 1064 1063 1458 1068 1462 
1465 1067 1072 1107 1509 1070 1111 1113 1074 
1076 1115 1513 1470 1478 1078 1117 1080 1119 
1123 1124 1521 1525 1092 1127 1096 1486 1529 
1098 1100 1494 1099 1498 1101 1104 1102 1103 
1502 1505 1108 1506 1112 1147 1151 1116 1114 
1155 1120 1159 1160 1126 1198 1128 1163 1561 
1133 1131 1132 1136 1530 1526 1134 1137 1135 
1140 1138 1139 1534 1537 1538 1141 1144 1143 
1541 1189 1185 1148 1146 1152 1187 1546 1150 
1156 1191 1593 1550 1199 1554 1195 1200 1194 
1594 1168 1164 1201 1167 1171 1176 1570 1569 
1573 1177 1175 1180 1179 1578 1181 1184 1182 
1183 823 825 1188 827 829 1190 833 1192 
831 1196 1590 834 837 839 835 1237 1208 
1204 1602 1207 1641 1209 1210 1610 1211 1213 
1216 1606 1214 1215 1220 1221 1222 1218 1219 
1224 1263 1618 1661 1226 1228 1267 1626 1269 
1232 1230 1236 1235 1634 1240 1279 1638 1247 
1243 1642 1645 1253 1212 1251 1252 1653 1254 
1255 1256 1260 1258 1259 1264 1701 1262 1303 
1268 1272 1662 1271 1276 1673 1670 1275 1674 
1315 1244 1280 1717 1678 1248 1283 1287 1286 
1646 1685 1686 1681 1290 1291 1292 1689 1293 
1294 1297 1295 1296 1697 1300 1694 1299 1339 
1304 1306 1308 1307 1312 1705 1709 1706 1311 
1316 1753 1713 1710 1281 1317 1319 1320 1714 
1718 1325 1282 1288 1323 1328 1327 1682 1330 
1329 1332 1331 1334 1333 1336 1335 1734 1377 
1340 1344 1741 1343 1742 1738 1345 1348 1745 
1347 1746 1352 1351 1355 1356 1750 1754 1749 
1284 1359 1721 1362 1365 1363 1368 1762 1765 
1369 1366 1367 1372 1371 1769 1373 1374 1376 
1375 1777 1381 1382 1378 1379 1778 1781 1384 
1383 1782 1388 1387 1391 1360 1395 1790 1324 
1399 1761 1797 1758 1405 1403 1408 1404 1409 
1407 1412 1806 1809 1410 1380 1411 1415 1420 
1817 1418 1419 1818 1424 1821 1425 1386 1392 
1423 1822 1427 1431 1825 1396 1794 1435 1833 
1400 1364 1798 1439 1441 1442 1445 1443 1444 
1842 1448 1449 1446 1451 1447 1453 1416 1455 
1457 1460 1459 1463 1861 1429 1428 1432 1869 
1826 1473 1471 1436 1475 1873 1477 1440 1479 
1485 1483 1484 1885 1489 1452 1487 1491 1846 
1889 1456 1893 1496 1495 1464 1499 1468 1901 
1466 1467 1472 1909 1870 1511 1474 1476 1515 
1517 1480 1519 1918 1917 1488 1523 1882 1925 
1490 1492 1527 1929 1890 1531 1886 1533 1535 
1933 1500 1501 1504 1898 1503 1545 1508 1549 
1507 1512 1547 1949 1553 1510 1516 1551 1953 
1518 1514 1557 1555 1558 1520 1559 1560 1957 
1921 1565 1522 1528 1563 1922 1965 1532 1567 
1926 1536 1540 1539 1973 1938 1542 1544 1543 
1942 1941 1585 1548 1589 1552 1587 1556 1591 
1597 1961 1524 1595 1599 1954 1958 1562 1203 
1564 1962 1601 1568 1566 1605 1571 1572 1966 
1970 1576 1574 1577 1575 1977 1580 1579 1581 
1584 1582 1583 1223 1225 1586 1588 1227 1592 
1229 1233 1231 1596 1598 1239 1600 1604 1643 
2002 1608 1609 1613 1612 1616 2006 1614 1617 
1615 1620 2014 1621 1619 1624 1622 1663 2061 
2018 1665 1628 2026 1632 1630 1631 1633 1636 
1635 2033 1675 1677 1640 1679 2077 2042 1648 
1644 2081 1650 1649 1647 1651 2046 1654 1655 
1656 1657 1660 1658 1659 1664 2062 2058 1669 
1666 1668 2065 1667 1672 2066 1671 2070 1676 
2073 2074 1715 1680 1719 2078 2117 1683 1684 
1687 1652 1690 1692 1691 1693 1695 1696 1700 
1698 1699 1704 1702 1703 1708 1707 1712 2109 
2113 1711 1716 2153 1751 2110 1720 1755 2157 
2118 1725 1688 1723 1728 1727 1729 1726 1732 
1730 1731 1737 1733 1736 1735 1739 1744 1743 
2142 2138 1748 1747 2146 1752 2149 1756 1791 
2150 1757 1759 1760 2154 1722 1763 1768 1770 
1766 1767 1772 2166 1771 1773 1775 1740 2177 
1780 1779 1783 1784 1785 2185 1788 1786 1787 
2186 1793 1789 1792 1795 1796 2189 2229 2190 
2194 1724 1799 2161 1805 1802 2162 1803 1808 
1807 1811 2170 1776 1813 1774 1815 2213 2174 
1820 2217 1819 1824 1829 1823 2222 1827 1828 
2225 1831 1835 1801 1837 1800 2201 1764 2198 
1839 1841 1845 1804 1843 1844 1847 2245 1810 
1849 1812 1851 1814 1853 1816 1855 1857 2257 
1854 2254 1858 1859 1860 1864 1865 1832 1863 
2262 1867 2265 2266 1830 1871 1834 1836 1875 
1838 1877 1840 1879 1881 1848 1883 2285 2242 
1850 1852 1887 2289 1891 1894 1856 1896 1895 
2294 2293 1897 1899 1900 1862 1903 2301 1866 
1868 1872 2309 1911 1874 1913 1876 2274 1915 
2313 1878 1880 1919 2317 2281 1888 1923 2282 
2325 1892 1927 2286 1931 2290 1930 1936 1937 
1935 1902 1939 1905 1904 1908 2341 1907 1906 
1947 1912 1910 2310 1951 1916 2353 1914 1955 
2314 1884 1920 2318 1928 1963 1924 2361 1969 
1932 1967 1972 2326 1934 1975 1971 2370 1940 
1944 1943 2342 1945 1985 1948 2385 1946 1989 
1952 1987 1950 1993 1991 1956 2354 1959 1960 
1999 2357 1603 1964 2362 2001 1968 2005 1607 
1611 2366 2009 1974 1976 1980 2374 1979 1981 
1982 1978 1984 1623 1983 2381 1625 1988 1986 
1627 1629 1992 1994 1990 1995 1996 1637 2037 
1997 1998 1639 2000 2041 2043 2004 2045 2008 
2047 2049 2445 2010 2051 2449 2016 2017 2020 
2414 2021 2019 2024 2022 2425 2422 2418 2028 
2027 2029 2032 2426 2030 2034 2031 2035 2036 
2433 2075 2434 2038 2040 2079 2044 2083 2481 
2442 2050 2053 2048 2052 2087 2485 2057 2054 
2055 2056 2060 2059 2063 2064 2461 2068 2069 
2067 2072 2469 2071 2076 2470 2513 2474 2115 
2119 2080 2517 2478 2085 2082 2084 2159 2088 
2086 2089 2091 2092 2090 2093 2094 2095 2096 
2097 2099 2102 2101 2104 2103 2502 2105 2108 
2505 2106 2107 2506 2112 2111 2116 2151 2114 
2120 2155 2557 2518 2125 2123 2121 2124 2127 
2128 2129 2126 2130 2132 2131 2133 2098 2135 
2100 2137 2141 2139 2144 2143 2542 2541 2145 
2148 2545 2147 2193 2152 2156 2191 2593 2549 
2158 2160 2195 2554 2165 2122 2168 2163 2561 
2169 2167 2171 2173 2136 2573 2134 2175 2140 
2181 2178 2179 2184 2183 2578 2581 2182 2188 
2187 2192 2231 2590 2197 2196 2199 2200 2598 
2205 2202 2203 2207 2204 2566 2209 2172 2211 
2176 2215 2180 2220 2617 2214 2614 2221 2218 
2219 2224 2226 2223 2622 2227 2228 2626 2230 
2232 2233 2236 2237 2235 2164 2239 2601 2241 
2208 2243 2206 2247 2210 2249 2212 2251 2610 
2253 2216 2255 2258 2261 2259 2260 2658 2264 
2267 2263 2268 2269 2234 2272 2273 2271 2275 
2238 2277 2240 2279 2638 2283 2248 2246 2252 
2287 2250 2291 2256 2296 2295 2298 2297 2300 
2299 2304 2303 2305 2307 2705 2270 2311 2709 
2276 2315 2278 2244 2280 2288 2323 2721 2725 
2329 2292 2327 2729 2331 2690 2330 2730 2333 
2336 2335 2334 2337 2340 2339 2302 2738 2306 
2349 2343 2308 2312 2347 2745 2351 2316 2710 
2321 2320 2284 2319 2718 2359 2717 2365 2322 
2328 2363 2324 2722 2332 2369 2367 2726 2769 
2373 2377 2371 2376 2375 2338 2379 2344 2345 
2348 2742 2346 2389 2352 2387 2785 2350 2355 
2356 2358 2399 2360 2758 2757 2003 2364 2368 
2762 2405 2372 2007 2766 2012 2013 2011 2015 
2380 2410 2413 2378 2384 2382 2383 2023 2782 
2025 2388 2386 2392 2390 2391 2393 2394 2395 
2396 2794 2790 2397 2398 2039 2400 2437 2441 
2402 2404 2443 2841 2408 2446 2447 2406 2846 
2845 2452 2849 2451 2453 2420 2814 2421 2419 
2423 2428 2788 2427 2429 2432 2826 2829 2430 
2431 2830 2436 2435 2477 2438 2440 2479 2877 
2475 2444 2483 2881 2842 2489 2450 2448 2487 
2488 2893 2454 2455 2456 2457 2459 2857 2462 
2424 2463 2465 2468 2466 2467 2472 2869 2866 
2473 2471 2476 2873 2870 2519 2515 2480 2878 
2521 2482 2484 2523 2918 2921 2559 2490 2486 
2492 2491 2889 2493 2497 2460 2495 2458 2499 
2858 2898 2464 2501 2504 2503 2901 2509 2508 
2507 2512 2909 2906 2553 2510 2511 2516 2953 
2514 2555 2520 2914 2957 2525 2524 2522 2558 
2599 2958 2527 2925 2526 2529 2531 2496 2533 
2933 2537 2494 2535 2500 2894 2937 2538 2498 
2539 2544 2941 2543 2546 2548 2547 2945 2550 
2552 2551 2556 2591 2950 2597 2595 2560 2997 
2565 2528 2563 2567 2922 2562 2569 2530 2532 
2571 2536 2534 2575 2540 2577 2579 2584 2583 
2585 2582 2586 2982 2588 2587 2985 2589 2592 
2631 2633 2594 2596 2635 2600 2994 2998 3033 
2605 2568 2607 2603 2570 2609 2572 2611 2613 
2574 2576 2615 2580 2620 3017 2974 2618 2619 
2621 2624 3018 2625 2623 2627 2628 2667 3026 
2629 2630 2669 2632 2671 2637 2634 2636 2564 
2639 2602 2606 2645 2608 2643 2647 2649 2612 
2651 2653 2654 2657 2616 2655 2659 2660 2661 
2664 2662 2665 2663 2668 2666 2673 2707 2670 
2675 2672 3073 2677 2641 2604 2640 3001 3038 
2685 2642 2648 2683 2646 2650 2689 2652 2687 
2691 2694 2656 2693 2696 2695 2697 2701 2700 
2699 2698 2704 2702 2706 2703 2708 2713 2674 
2711 2676 3074 2681 2678 2680 2679 2644 3078 
3081 2682 2688 2723 3125 2686 2692 2727 2731 
3086 2733 2736 2734 2735 2737 2740 2739 2741 
2744 2743 2749 2712 2747 3110 3145 3113 2714 
2716 2715 3114 2720 2719 2684 3117 2728 2763 
2761 2765 3161 3165 2724 2732 2767 2772 2773 
2771 2776 2770 2774 2775 2777 2780 2781 2779 
2750 2748 2746 2752 2751 3150 2753 2754 2755 
2756 3153 3154 3157 2759 2760 2799 2797 2401 
2403 2764 2768 2407 2409 2412 2809 2417 2411 
2416 2415 2778 2784 2783 3185 3178 2786 2787 
2789 2792 3186 2791 2793 2795 2796 3190 2798 
2439 2800 2802 2804 2843 2808 3241 2847 2851 
3249 2853 2816 2820 3217 3182 2821 2819 3221 
2825 2828 2823 3222 3218 2827 2832 3226 2834 
2831 3230 2833 2836 2835 3233 2838 2840 2879 
3238 2875 3277 2844 2883 3281 3242 2850 2885 
2848 2852 2887 3246 3250 3253 2818 2856 2855 
2859 2861 2862 2822 2824 2863 3261 3262 2865 
2868 3265 2867 2872 3269 2913 2871 2876 3270 
3273 2874 2917 2915 3274 2880 2919 3278 3317 
2882 3285 2884 2959 2888 3282 2891 2892 2890 
3289 2854 2897 2860 2895 2899 3297 3293 2864 
2904 3301 2902 2903 2905 2908 2907 2912 3309 
3306 2910 3313 2911 2916 3353 3310 2951 2955 
2920 2886 2923 2924 3321 2927 2928 2926 2929 
2931 2896 3329 3326 2900 2935 2938 2942 2939 
2944 2943 2946 2948 2947 2949 2993 2952 2956 
2991 3350 3393 2954 2995 2960 3354 3358 2965 
2963 2967 3322 2961 2969 2930 2932 2971 2973 
2936 2934 2975 2977 2940 3377 3334 2978 2979 
2981 2983 2984 2986 2988 2987 3029 2990 2989 
2992 3031 2996 2999 3000 2962 2966 3005 2968 
3007 2970 3009 2972 3011 3013 2976 3015 3374 
2980 3020 3414 3019 3021 3024 3022 3025 3023 
3027 3028 3069 3030 3032 3036 3067 3034 3035 
2964 3037 3039 3045 3002 3006 3003 3008 3043 
3445 3406 3047 3010 3049 3012 3051 3014 3053 
3054 3057 3016 3055 3453 3060 3058 3061 3059 
3064 3062 3066 3065 3063 3068 3465 3072 3071 
3075 3070 3004 3040 3042 3085 3048 3083 3442 
3089 3046 3052 3087 3050 3091 3093 3094 3056 
3096 3095 3097 3098 3101 3099 3100 3104 3498 
3102 3105 3106 3103 3107 3108 3509 3109 3077 
3111 3076 3080 3513 3041 3079 3044 3441 3478 
3481 3082 3088 3123 3090 3129 3092 3127 3131 
3130 3133 3134 3136 3135 3137 3138 3141 3140 
3139 3541 3143 3112 3147 3116 3115 3510 3514 
3121 3118 3120 3517 3119 3084 3518 3521 3122 
3128 3163 3561 3126 3169 3132 3167 3173 3170 
3171 3176 3174 3175 3177 3179 3144 3181 3146 
3149 3142 3148 3152 3151 3550 3585 3546 3155 
3156 3554 3553 3197 3159 3124 3160 3158 3199 
3557 3162 2805 2801 2803 3164 3168 2806 3166 
2812 3172 2807 3566 3209 2810 2813 2811 2815 
3213 3180 2817 3184 3183 3188 3582 3189 3187 
3192 3589 3586 3193 3191 3194 3195 3196 3594 
3198 2837 2839 3200 3597 3237 3202 3204 3243 
3641 3245 3210 3208 3212 3216 3613 3214 3215 
3220 3614 3219 3224 3621 3225 3228 3622 3229 
3227 3626 3232 3629 3234 3231 3630 3236 3634 
3235 3275 3240 3279 3638 3248 3244 3645 3646 
3247 3251 3252 3256 3653 3649 3254 3257 3255 
3654 3260 3657 3259 3263 3662 3665 3268 3266 
3267 3272 3666 3271 3276 3673 3713 3315 3280 
3319 3717 3678 3286 3283 3284 3686 3287 3685 
3681 3292 3291 3290 3295 3296 3694 3693 3258 
3299 3697 3302 3264 3304 3303 3305 3308 3307 
3312 3709 3705 3311 3316 3351 3753 3710 3318 
3357 3314 3355 3320 3714 3718 3325 3288 3323 
3328 3682 3327 3725 3332 3333 3331 3726 3729 
3294 3335 3300 3337 3298 3341 3339 3344 3738 
3342 3343 3338 3345 3348 3346 3347 3349 3352 
3749 3356 3391 3750 3754 3359 3360 3721 3757 
3365 3363 3368 3362 3765 3369 3330 3367 3371 
3373 3336 3773 3769 3375 3340 3380 3777 3378 
3382 3381 3379 3778 3383 3384 3385 3386 3388 
3387 3389 3390 3392 3395 3396 3429 3394 3397 
3324 3361 3399 3758 3366 3405 3403 3407 3401 
3370 3409 3372 3411 3376 3413 3417 3415 3774 
3420 3418 3421 3419 3818 3424 3422 3425 3426 
3423 3427 3428 3432 3433 3430 3431 3435 3437 
3400 3364 3398 3439 3402 3404 3408 3443 3447 
3449 3410 3412 3451 3454 3457 3416 3455 3460 
3814 3857 3458 3461 3459 3464 3861 3462 3466 
3463 3865 3467 3869 3469 3434 3473 3471 3436 
3475 3438 3440 3477 3479 3877 3838 3485 3448 
3483 3450 3446 3489 3452 3487 3491 3493 3456 
3495 3494 3497 3501 3499 3500 3503 3862 3505 
3468 3472 3507 3470 3511 3474 3476 3515 3874 
3913 3444 3480 3917 3525 3482 3488 3523 3529 
3486 3492 3527 3490 3531 3534 3530 3496 3533 
3536 3535 3537 3502 3539 3504 3508 3506 3549 
3512 3547 3949 3551 3516 3910 3520 3484 3519 
3918 3559 3914 3522 3528 3563 3565 3965 3569 
3526 3532 3567 3572 3926 3570 3573 3571 3575 
3540 3577 3938 3538 3542 3544 3543 3942 3545 
3548 3985 3552 3587 3946 3989 3945 3555 3556 
3954 3950 3558 3524 3560 3599 3957 3201 3205 
3562 3203 3564 3601 3962 3568 3206 3207 3211 
3574 3576 3580 3579 3581 3578 3584 3978 3223 
3583 3982 3588 3625 3592 3986 3590 3591 3593 
3595 3596 3990 3993 3598 3997 3239 3600 3998 
5 3602 3608 3604 3607 10 9 3610 3606 
3611 13 3616 14 3617 3615 17 3620 3618 
21 18 3619 22 61 3624 3663 3628 26 
65 3632 73 3633 30 3631 3636 3635 3675 
77 3677 3640 3679 6 3642 45 3643 3647 
49 3650 3612 50 3652 3651 53 3656 57 
3655 3660 58 3661 3658 3659 101 3664 3669 
3668 3667 3672 3670 3671 3676 3674 3715 41 
3644 3680 42 46 85 86 3648 3683 3687 
3688 89 90 3689 3692 3691 3690 97 94 
93 3695 3696 3700 98 102 3699 3701 3704 
3702 3703 105 3706 3708 109 106 3707 3712 
114 110 3711 3716 3751 81 117 3719 3720 
82 126 125 3723 3728 3727 129 130 3732 
3731 3730 3733 3737 3735 3736 3698 3741 3739 
3744 3742 3743 3745 3748 3746 3747 150 149 
3752 3755 3756 121 157 118 3684 3759 122 
162 3762 3722 3763 3768 169 3766 3767 3772 
3771 177 3734 3775 3740 3780 3781 3782 138 
178 3779 182 3783 3784 3785 3788 3786 3787 
193 3789 3790 3793 3791 3760 3795 161 3761 
3797 158 3724 3799 3805 3802 3803 3808 3770 
3809 3807 3811 3813 3817 3776 3815 217 3820 
3821 3819 218 3824 3822 3829 3823 3825 3792 
3827 3831 233 3833 3794 3796 3835 237 3801 
3837 3800 3764 3798 3839 3845 241 3841 3843 
3844 3806 3847 3849 3810 3812 3851 257 3853 
3854 3816 3855 261 3858 3859 3860 222 3863 
226 229 269 3826 3828 3832 230 3830 3871 
273 234 3834 3836 3873 3875 277 3804 238 
3840 3879 3842 3885 3848 3883 3846 3889 3850 
3852 3887 3891 3893 3856 3896 297 3895 3894 
3897 3901 3899 3864 3868 309 3909 3867 3866 
3872 3907 3870 3911 3876 3915 3878 3881 318 
3880 3919 3882 282 3925 3888 3923 329 3930 
3929 3886 3892 3927 3890 3931 3933 3935 3937 
3900 3898 3902 3904 3905 3903 306 345 3908 
3906 3912 3947 310 3953 3916 3951 321 3955 
357 3921 3884 3920 322 361 3922 3961 3928 
3963 3969 3932 3967 3971 3934 3973 3936 3940 
338 3939 341 342 3944 3941 3943 3948 389 
346 3952 3987 350 393 3956 3991 397 3958 
354 3959 3924 3960 3999 366 3603 3964 3605 
3968 370 369 3609 3966 3972 3970 3976 3975 
3974 3977 3980 3979 3981 381 3984 3983 3623 
25 3988 3627 3992 390 394 3994 3995 3996 
37 3637 3639 4000 
type 1 4000 int
1 1 1 1 1 1 1 1 1 
1 1 1 1 1 1 1 1 1 
1 1 1 1 1 1 1 1 1 
1 1 1 1 1 1 1 1 1 
1 1 1 1 1 1 1 1 1 
1 1 1 1 1 1 1 1 1 
1 1 1 1 1 1 1 1 1 
1 1 1 1 1 1 1 1 1 
1 1 1 1 1 1 1 1 1 
1 1 1 1 1 1 1 1 1 
1 1 1 1 1 1 1 1 1 
1 1 1 1 1 1 1 1 1 
1 1 1 1 1 1 1 1 1 
1 1 1 1 1 1 1 1 1 
1 1 1 1 1 1 1 1 1 
1 1 1 1 1 1 1 1 1 
1 1 1 1 1 1 1 1 1 
1 1 1 1 1 1 1 1 1 
1 1 1 1 1 1 1 1 1 
1 1 1 1 1 1 1 1 1 
1 1 1 1 1 1 1 1 1 
1 1 1 1 1 1 1 1 1 
1 1 1 1 1 1 1 1 1 
1 1 1 1 1 1 1 1 1 
1 1 1 1 1 1 1 1 1 
1 1 1 1 1 1 1 1 1 
1 1 1 1 1 1 1 1 1 
1 1 1 1 1 1 1 1 1 
1 1 1 1 1 1 1 1 1 
1 1 1 1 1 1 1 1 1 
1 1 1 1 1 1 1 1 1 