# vtk DataFile Version 4.0
Generated by LAMMPS
ASCII
DATASET POLYDATA
POINTS 4000 float
4.23514 -0.211303 3.7237 6.28659 -0.588158 1.79735 3.95263 -2.40025 1.70261 
5.88039 -2.67842 3.90652 10.2284 -1.38498 1.81581 8.10227 -0.936221 3.89521 
10.4973 0.702642 3.68501 7.90119 -2.912 1.76441 9.94482 -3.27391 3.67153 
12.1791 0.193026 1.55975 14.0901 -2.06327 1.74564 12.2372 -1.74976 3.69471 
14.5526 -0.253565 3.75291 11.9766 -1.64801 -0.515278 16.4654 -0.523352 1.74203 
18.2921 -2.70802 1.43397 18.5447 -0.926183 3.76642 20.2008 -3.39886 3.8144 
16.4085 -2.48323 3.76316 20.4795 -1.32381 1.76672 20.3938 -3.36533 -0.546972 
24.3877 -2.25597 1.70775 22.4611 -1.90597 3.73911 24.5827 0.0248262 3.81925 
22.5736 0.598875 1.81809 20.8267 0.794403 -0.317383 20.757 0.6307 3.98021 
28.1497 -2.73372 1.67767 26.3494 -0.253751 1.7131 28.4473 -0.676959 3.56671 
26.3747 -2.56452 3.71542 28.5058 -0.635308 -0.513741 26.3613 -2.24314 -0.36347 
30.3467 -1.05159 1.4803 32.1314 -3.31532 1.54767 32.2663 -1.49427 3.73042 
30.1346 -3.21621 3.8279 30.1395 -2.9865 -0.330798 36.3881 0.0809271 1.46306 
34.0813 -1.5896 1.79792 36.2067 -1.91668 3.70015 34.574 0.426727 3.80538 
4.67662 1.72335 1.51756 6.78817 3.34836 1.52704 6.35331 1.37493 4.00283 
4.87882 3.75504 3.60836 4.8702 3.47143 -0.457618 8.44845 0.974177 1.81923 
8.94241 4.96306 1.72437 10.7085 2.4796 1.60563 8.6616 2.89944 3.82712 
11.2088 4.51772 3.68952 14.6921 1.67885 1.59035 13.0699 4.01139 1.68224 
12.9925 2.0003 3.76693 15.0877 3.73372 3.60887 14.8522 3.70496 -0.522779 
18.9868 1.10861 1.80448 16.8703 3.34294 1.60344 19.0193 3.06816 3.67822 
16.7043 1.50687 3.69314 19.0534 5.05929 1.76505 20.9156 2.70237 1.48954 
23.035 4.35608 1.52631 22.7127 2.39427 3.83206 21.249 4.77704 3.68801 
22.7971 2.53251 -0.592419 24.7022 2.28817 1.69086 26.8828 3.91878 1.65871 
28.6478 1.40522 1.57225 24.9755 4.09562 3.84252 26.7235 1.80711 3.66598 
32.5752 0.5672 1.6647 30.6402 0.943558 3.60939 30.8288 3.00656 1.69511 
28.8347 3.46978 3.59158 32.6471 2.75759 3.73849 32.9025 4.70821 1.73715 
30.9241 5.25596 3.67184 36.7459 4.14909 1.63025 34.6245 2.38508 1.60299 
36.61 2.28339 3.5833 34.8777 4.38163 3.68333 6.98249 5.27252 3.75293 
5.17579 5.7333 1.31057 3.32945 8.0836 1.8104 5.41311 7.79742 3.73688 
7.23931 5.40254 -0.484166 7.39614 7.23067 1.81809 11.2199 6.58303 1.71855 
9.66101 8.86973 1.83583 9.30774 6.73084 3.73479 9.33398 6.97157 -0.481741 
7.57001 9.30587 3.75816 11.7562 8.5246 3.90261 15.2933 5.6484 1.63118 
13.6586 8.05632 1.69271 13.4675 6.13015 3.80052 15.6383 7.76944 3.67524 
17.6172 7.63465 1.68333 19.8194 8.97081 1.76749 17.328 5.3151 3.63316 
19.3722 6.93412 3.87488 17.8528 9.44181 3.79416 21.4177 6.71167 1.56259 
23.4417 8.51241 1.59978 23.5018 6.5285 3.6234 21.5986 8.7296 3.67207 
21.6162 9.00581 -0.320587 23.3741 6.60742 -0.546053 25.1976 6.10009 1.42006 
27.2007 5.64559 3.60691 27.6163 7.74193 1.62591 25.7371 8.04762 3.73707 
31.198 7.01716 1.60407 29.1409 5.37687 1.59002 31.6451 9.14664 3.89983 
29.2532 7.68358 3.66873 29.6253 9.63712 1.78425 37.0365 6.19689 3.73735 
35.1999 6.56817 1.71058 33.5052 8.89857 1.63456 33.0929 6.87365 3.79915 
35.3624 8.48789 3.73643 5.63992 9.72632 1.67387 4.03624 11.9846 1.85985 
6.50145 13.6873 1.57259 3.68635 10.0896 3.69706 6.01971 11.6429 3.57576 
6.0885 11.4706 -0.407263 8.02729 11.3647 1.72126 10.4182 12.8149 1.85184 
8.46932 13.3817 3.71922 9.95544 10.8994 3.81798 12.0589 10.5081 1.81695 
10.0196 10.7404 -0.233846 8.49507 13.3409 -0.319943 14.2132 12.2339 1.63574 
14.0404 10.1595 3.77183 12.281 12.5465 -0.281198 15.8816 9.75529 1.60823 
12.4934 12.5388 3.87085 13.936 10.0631 -0.319064 16.2738 11.6722 -0.396986 
16.1296 11.7856 3.70415 17.9289 11.4669 1.71006 20.0497 11.1047 3.69387 
18.2975 13.4619 3.87191 20.1916 13.3365 1.64267 17.8463 9.28531 -0.500873 
21.9413 10.9989 1.61512 23.8629 10.2089 3.79183 24.1453 12.5285 1.74726 
22.1685 12.8861 3.87783 23.7851 10.6773 -0.361603 22.1911 12.9942 -0.42305 
25.6341 10.1783 1.74013 27.9597 12.1556 2.19467 25.9367 12.4045 3.77243 
27.8103 9.89052 3.67708 31.7617 11.2368 1.74195 30.0978 13.6728 1.72789 
32.1975 13.1772 -0.326477 30.0045 11.6447 3.8693 32.0771 13.3711 3.80801 
35.8536 10.5941 1.81986 34.142 12.7816 1.87832 33.7885 10.8859 3.76567 
36.0551 12.5722 3.76672 4.47671 14.1447 3.80937 4.40194 16.0795 1.8779 
6.93979 17.6511 1.64606 6.7017 15.8501 3.74944 8.61463 15.4883 1.69548 
10.9674 17.0183 2.08868 10.7403 14.9648 3.8027 8.8304 17.4443 3.75829 
8.84173 17.4081 -0.508019 12.7911 14.4334 1.86741 14.7099 16.3724 1.82105 
14.6251 14.2562 3.80238 12.9198 16.5641 3.85498 16.3556 13.8956 1.83655 
18.4715 15.6157 1.69571 18.892 17.5348 3.81383 16.6514 15.9747 3.87526 
22.4397 14.9572 1.66972 20.8541 17.1855 1.88254 24.4421 16.816 2.01492 
20.6802 15.1552 3.89094 22.5857 17.0141 3.92924 24.359 14.6714 3.76688 
28.1776 14.1977 3.79308 26.1169 14.336 1.79617 26.6528 16.5626 3.94656 
28.4911 15.94 1.70931 28.5838 18.2433 3.94653 28.7811 17.9155 -0.261224 
32.3315 15.1352 1.76695 30.4127 17.7282 1.88311 32.6734 17.2569 -0.0496142 
30.1327 15.7583 4.10638 32.527 17.2743 3.81325 30.3751 15.452 -0.264018 
36.0839 14.5859 1.98389 34.5533 16.8632 1.92377 36.6111 16.5034 3.81917 
34.3976 14.8424 3.81548 5.18123 20.1164 1.92564 7.20499 19.9096 4.0046 
5.51672 22.043 4.04324 7.58975 21.6638 1.57975 4.97498 18.0754 3.79623 
5.43484 22.0181 -0.289186 7.16443 19.7659 -0.367429 9.13804 19.4166 1.64625 
11.3197 21.2131 1.75813 11.0798 18.9422 3.75166 9.35126 21.5417 3.67023 
9.34411 21.3186 -0.391241 13.1202 18.588 1.75231 15.1286 20.5036 1.77064 
14.9669 18.4969 3.80061 13.2108 20.7287 3.68427 14.8803 18.5948 -0.366723 
16.9194 18.0546 1.66844 18.8397 19.9019 1.79059 19.2101 21.9005 3.98388 
17.212 22.3691 1.88192 17.1888 20.2161 3.85448 22.6765 19.1334 1.76819 
20.897 19.5235 4.09388 21.1126 21.3745 1.95701 23.1012 21.3915 3.91404 
26.7628 18.3702 1.73963 25.0419 20.5273 1.7562 27.188 22.5057 1.94685 
24.8671 18.7562 3.88942 26.7988 20.3703 3.92604 24.6615 18.8533 -0.286298 
28.906 20.0362 1.78719 30.9968 19.5966 -0.416176 31.0741 21.6967 1.5114 
29.1545 22.0881 -0.312445 32.8882 19.3353 1.89367 30.7857 19.9894 3.76364 
29.1857 22.2311 4.04085 33.0142 21.4205 3.74641 37.0269 20.566 -0.307499 
36.811 18.4714 1.85676 34.733 18.7859 -0.269465 35.1649 20.8611 1.69314 
37.0959 20.3802 3.86395 34.8717 18.9344 3.71548 33.212 21.1859 -0.109183 
5.79344 23.9686 1.71669 5.86068 26.2111 3.91823 7.64902 23.5957 -0.444833 
3.90224 24.4013 3.75723 4.04017 26.3708 1.8683 3.57344 24.6297 -0.343749 
7.72638 25.8684 1.73967 7.68805 23.9202 3.89753 9.45089 23.5576 1.67007 
11.4023 23.2704 3.79491 11.5951 25.2343 1.65327 9.70502 25.6491 3.70059 
9.72746 25.6246 -0.461575 11.3258 23.3548 -0.468701 15.1212 22.6571 3.79085 
13.391 22.762 1.55391 15.5153 24.5546 1.65413 13.6171 24.8286 3.6511 
17.6872 26.3837 1.5922 19.4541 23.9276 1.72356 17.5295 24.2214 3.96018 
19.6788 25.9126 3.60731 23.1644 23.0508 1.70953 21.6573 25.4652 1.76055 
21.3096 23.582 3.85711 23.5429 25.3319 3.91487 23.4985 25.2641 -0.302076 
21.293 23.5497 -0.373961 25.1405 22.8477 3.99195 25.4015 24.6202 1.89561 
27.4711 24.5518 -0.50527 27.7241 26.3575 1.76009 27.4354 24.6023 3.86823 
25.7028 26.7281 3.76358 29.2893 24.0342 1.83065 31.2724 23.7255 -0.210906 
31.7296 25.8011 1.77338 31.3982 23.9301 3.79135 29.5376 25.9641 3.65429 
29.8258 26.1228 -0.261189 37.5492 22.2361 1.89671 33.3615 23.4007 1.76236 
35.844 24.9718 1.80834 35.4697 22.905 3.7624 33.5779 25.4743 3.84103 
35.563 22.8703 -0.130923 33.6251 25.2702 -0.344221 6.18563 28.2795 1.86699 
4.3878 30.6817 1.8582 4.0468 28.6121 3.86314 6.34226 30.2981 3.93486 
6.34318 30.3142 -0.35897 7.9577 27.9165 3.833 9.93545 27.6548 1.80303 
8.2201 30.0215 1.66308 10.2884 29.7607 3.683 11.9558 27.2079 3.85343 
7.87875 28.057 -0.265736 13.634 26.9859 1.87326 15.7063 26.5776 3.74479 
12.0909 29.2658 1.70288 15.9847 28.7605 1.82577 14.0626 29.1372 3.82349 
16.1332 30.8354 -0.363051 18.2423 30.2861 1.72287 19.8019 28.0968 1.79828 
16.1064 30.922 3.9587 17.8099 28.4599 3.95071 19.91 30.2563 3.84793 
20.1584 30.0093 -0.220253 23.6547 27.3574 1.87548 21.9775 29.6774 1.8267 
24.0779 29.2211 -0.079887 23.9052 29.3107 4.10408 21.7162 27.7128 3.86956 
21.7111 27.3905 -0.445229 25.6706 26.7776 -0.33052 25.8795 28.8127 1.96279 
27.5888 28.5462 -0.106599 26.2571 30.8066 -0.11566 28.3924 30.2795 1.79592 
28.0577 28.3619 3.85057 26.4085 30.7052 3.97552 29.8032 27.9259 1.73719 
32.4324 29.4907 1.76063 31.7591 27.596 3.76341 30.1734 29.9421 3.93822 
31.9714 27.7215 -0.282863 29.9899 29.9288 -0.405753 34.0319 27.2955 1.60534 
36.2123 28.9133 1.69517 35.9666 26.8156 3.85615 34.4195 29.2883 -0.358411 
34.2781 29.1542 3.87078 36.8054 30.9167 -0.263767 6.46156 32.4603 1.59963 
4.924 34.9741 1.76468 4.67521 32.5888 3.73881 6.64506 34.5038 3.85461 
4.61299 32.7428 -0.383145 10.4053 31.808 1.89788 8.63302 34.0954 1.84061 
8.37228 32.16 3.83133 10.5738 33.8227 3.61997 14.1307 31.0996 1.7628 
12.5615 33.5822 1.89885 14.4046 33.1241 -0.297826 14.6697 35.0799 1.79254 
12.567 35.6838 3.87088 12.1919 31.605 3.8669 14.375 33.28 4.05177 
16.2124 32.7249 1.74692 18.6599 34.4463 1.79081 16.6229 34.8542 3.64259 
18.3806 32.5942 3.67873 18.3233 32.2514 -0.356384 22.1543 31.8822 3.70304 
24.2057 31.289 1.73129 22.3051 31.4817 -0.299439 20.3034 32.2623 1.7851 
22.6304 33.7163 1.71882 20.5731 34.0695 -0.3457 20.7357 34.1177 3.9037 
22.8644 35.6846 -0.391812 26.6132 32.7114 1.89989 24.6312 33.3287 -0.242008 
24.9377 35.4057 1.78874 28.6502 32.4581 3.97043 24.5934 33.2039 3.73466 
26.8925 34.779 3.89525 26.9313 34.7072 -0.110339 28.6473 32.2597 -0.144864 
28.9051 34.3085 1.84497 30.7094 31.844 1.8037 32.521 31.58 -0.349393 
31.0072 33.8641 3.82054 33.0606 33.4774 1.74085 32.8557 31.4623 3.83685 
30.8339 33.8154 -0.400025 34.7075 31.2111 1.66028 36.949 33.0663 1.86966 
34.8723 33.2368 3.72638 36.5517 30.8584 3.83762 37.1736 35.2078 3.74086 
34.843 33.1787 -0.312375 7.02798 36.5768 1.60868 5.35166 38.9414 1.65791 
[...]
POINT_DATA 4000
FIELD FieldData 6
id 1 4000 int
405 7 3 766 11 409 410 372 770 
16 15 413 414 13 20 19 418 421 
417 24 21 28 422 465 63 61 461 
32 67 469 426 30 26 36 35 434 
430 33 4 40 401 438 8 47 406 
445 45 12 52 51 449 450 55 56 
453 454 54 59 60 458 457 99 64 
103 462 501 62 68 72 71 505 466 
75 473 76 470 477 80 474 43 79 
402 441 446 48 83 485 46 87 91 
92 489 89 486 490 95 96 493 494 
100 139 497 498 537 104 108 502 541 
102 105 107 509 112 506 115 111 517 
513 116 442 44 119 478 481 88 123 
128 482 525 125 127 132 526 529 131 
129 126 136 533 130 135 530 133 134 
534 140 538 577 144 137 143 545 148 
542 145 142 147 151 549 510 120 155 
157 514 557 84 159 518 521 522 163 
168 565 167 172 569 566 166 171 176 
573 570 175 179 578 574 183 184 187 
581 585 546 553 152 550 156 593 193 
160 195 197 554 597 154 124 199 561 
558 203 605 602 208 562 202 205 207 
212 609 606 206 211 215 613 610 174 
180 219 621 220 617 188 582 223 586 
191 192 231 589 590 186 196 194 235 
233 200 594 633 637 201 164 198 239 
601 598 237 243 642 245 641 244 241 
248 645 247 649 251 646 249 210 614 
216 255 653 259 224 618 622 227 228 
625 626 226 222 629 232 230 271 630 
669 236 234 275 634 673 273 204 240 
279 638 677 238 277 283 284 681 682 
285 685 252 287 689 650 246 256 657 
291 260 654 297 264 263 658 661 662 
262 267 268 266 666 665 265 269 272 
270 309 311 670 709 276 315 674 713 
274 313 280 319 678 317 717 318 288 
323 721 725 282 292 327 686 690 295 
296 294 300 694 693 697 299 304 698 
701 301 705 307 305 303 308 302 702 
345 312 306 347 710 706 749 349 310 
351 316 314 753 355 714 353 320 359 
757 718 758 357 328 363 722 761 726 
322 365 361 331 332 729 733 335 340 
734 737 334 339 344 738 741 745 343 
348 342 742 785 385 352 389 387 346 
746 789 356 391 350 750 793 393 354 
754 324 395 360 797 399 358 368 364 
762 765 367 336 730 371 769 773 369 
375 376 774 777 380 379 384 778 381 
781 23 383 388 382 782 425 27 392 
429 786 29 31 396 790 433 390 437 
794 39 400 798 397 398 407 768 805 
1166 411 810 809 772 1170 416 415 814 
813 420 419 817 821 818 424 463 822 
428 865 432 467 869 826 471 436 830 
873 403 440 801 838 806 408 447 845 
412 451 849 452 850 455 456 853 854 
459 460 857 858 499 464 503 861 901 
862 468 507 905 866 472 475 476 909 
877 870 443 404 479 841 802 846 448 
483 885 842 487 492 886 491 890 889 
495 496 894 893 897 500 898 539 941 
504 543 902 508 512 906 945 511 480 
917 913 874 515 444 519 878 881 488 
882 523 925 528 527 532 926 929 535 
531 536 933 930 937 540 579 934 938 
977 544 548 942 981 516 547 910 949 
520 555 957 914 484 918 559 921 922 
563 965 568 567 572 969 966 571 576 
973 970 575 580 974 1017 583 584 978 
946 985 552 551 953 950 556 993 560 
595 954 997 524 599 958 961 962 603 
1005 1002 608 607 612 1006 1009 611 1010 
616 1013 615 619 620 1014 1021 588 587 
986 982 591 989 592 631 990 596 635 
994 1033 600 1001 564 639 998 1037 643 
1041 1042 1045 604 644 647 648 1049 652 
1046 651 655 1053 1050 1057 623 624 1022 
1018 627 628 1025 1026 1029 632 1030 671 
636 675 1034 1073 640 679 1038 1077 683 
684 1081 1082 687 688 1085 1086 1089 691 
656 660 1054 659 664 1061 1058 663 1062 
667 1065 668 1066 707 1069 672 1109 1070 
711 676 715 1113 1074 680 719 1078 1117 
1118 723 724 1121 1122 692 727 1125 1090 
695 700 1097 1093 699 704 1098 1101 703 
708 1102 1105 712 1106 747 1149 1110 751 
716 1153 1114 755 759 720 1157 1158 728 
763 1161 1126 1198 696 731 1133 1129 1094 
735 1137 740 1134 739 744 1141 1138 1145 
743 748 1142 752 1146 787 1189 756 791 
1150 1193 1154 795 799 760 800 1197 767 
764 732 1162 1165 736 1130 1169 771 1173 
775 776 1174 1177 780 779 1178 784 1181 
1185 783 423 788 1182 825 427 792 829 
1186 431 796 1190 833 834 439 435 1194 
837 803 807 1202 1205 811 1210 1209 1172 
1570 816 815 1213 1214 820 819 1218 1217 
1221 824 828 863 1222 1261 1265 832 867 
1226 1269 871 836 1230 1234 875 840 804 
1238 1277 1206 808 847 1245 812 851 852 
1249 1250 855 856 1254 1253 859 860 1257 
1258 899 864 903 1262 1301 868 872 907 
1266 1305 876 1270 1273 1313 1274 843 879 
880 1241 1278 1246 848 883 1285 887 1242 
891 892 1289 1286 1290 1293 895 896 1294 
1297 900 939 1298 904 943 1302 1341 908 
912 1309 1306 911 915 1310 1314 844 919 
1281 1317 888 923 928 1325 1282 927 932 
1326 1329 935 931 1330 936 1333 940 979 
1337 1334 1338 1377 944 948 1345 1342 947 
951 1349 1346 916 920 955 1357 1353 884 
1318 959 1321 1322 963 1365 968 1362 1369 
967 972 1366 971 976 1370 1373 975 980 
1374 1378 1381 983 984 1382 1385 1350 987 
952 956 1389 1393 960 1354 995 1397 924 
1361 999 1358 1003 1405 1402 1008 1007 1012 
1406 1409 1011 1016 1410 1413 1015 1019 1020 
1417 1418 988 1023 1421 1425 991 992 1390 
1031 1386 996 1035 1394 1433 1000 1437 1401 
964 1039 1398 1043 1044 1441 1442 1445 1047 
1048 1449 1446 1052 1414 1055 1051 1453 1454 
1024 1059 1457 1461 1027 1028 1426 1422 1429 
1032 1071 1430 1036 1075 1473 1434 1004 1040 
1079 1438 1477 1083 1084 1481 1482 1087 1088 
1485 1489 1450 1091 1056 1095 1493 1060 1064 
1063 1458 1497 1462 1067 1465 1068 1466 1469 
1072 1470 1509 1111 1076 1115 1513 1474 1080 
1119 1517 1478 1518 1123 1124 1521 1525 1092 
1127 1486 1529 1096 1100 1533 1494 1490 1099 
1498 1501 1104 1107 1505 1103 1108 1502 1506 
1112 1147 1549 1510 1151 1116 1553 1155 1514 
1120 1159 1160 1557 1558 1128 1163 1565 1522 
1561 1131 1132 1136 1530 1526 1135 1534 1140 
1537 1139 1144 1538 1541 1545 1143 1148 1542 
1585 1152 1589 1187 1546 1550 1156 1191 1593 
1195 1199 1200 1554 1597 1168 1164 1201 1562 
1167 1171 1573 1566 1569 1176 1175 1574 1180 
1577 1179 1184 1581 1578 1183 823 1188 1225 
1582 827 1192 1586 1229 831 1196 1233 1590 
1237 839 835 1594 1598 1208 1204 1641 1602 
1610 1207 1211 1606 1216 1215 1614 1613 1220 
1219 1618 1617 1224 1228 1263 1661 1622 1665 
1267 1232 1630 1626 1236 1235 1634 1275 1633 
1240 1279 1677 1638 1247 1243 1642 1645 1646 
1212 1649 1251 1252 1650 1653 1255 1256 1654 
1259 1260 1658 1657 1264 1303 1701 1662 1271 
1268 1272 1669 1666 1276 1670 1673 1674 1315 
1244 1280 1717 1678 1248 1283 1685 1681 1287 
1291 1689 1292 1686 1690 1295 1296 1694 1693 
1299 1697 1300 1339 1698 1737 1304 1308 1705 
1702 1307 1312 1709 1706 1311 1316 1351 1713 
1710 1753 1319 1320 1714 1718 1288 1682 1323 
1725 1328 1729 1327 1332 1726 1331 1730 1336 
1733 1335 1734 1340 1344 1741 1738 1739 1343 
1348 1745 1742 1743 1347 1352 1749 1746 1355 
1356 1750 1754 1284 1721 1359 1757 1363 1368 
1762 1722 1765 1367 1769 1372 1766 1371 1376 
1773 1770 1375 1379 1778 1380 1777 1781 1384 
1383 1785 1782 1388 1789 1387 1391 1786 1360 
1395 1797 1793 1790 1324 1758 1399 1761 1403 
1805 1802 1408 1407 1412 1806 1809 1807 1411 
1415 1813 1774 1814 1419 1420 1817 1818 1423 
1424 1821 1822 1392 1427 1431 1825 1829 1826 
1396 1794 1435 1833 1400 1364 1801 1798 1439 
1837 1443 1444 1842 1841 1845 1451 1447 1448 
1810 1849 1416 1455 1853 1459 1460 1857 1858 
1428 1463 1861 1865 1432 1830 1471 1867 1436 
1475 1873 1834 1404 1440 1479 1838 1877 1483 
1484 1881 1885 1452 1487 1846 1889 1854 1456 
1491 1850 1893 1496 1890 1495 1464 1499 1894 
1901 1897 1467 1468 1866 1862 1507 1869 1472 
1870 1511 1909 1476 1874 1913 1515 1480 1519 
1878 1918 1917 1488 1523 1882 1925 1492 1527 
1929 1886 1531 1535 1933 1930 1500 1504 1898 
1937 1905 1503 1508 1902 1906 1512 1547 1949 
1910 1516 1555 1914 1551 1953 1520 1559 1957 
1921 1528 1563 1922 1965 1961 1532 1567 1571 
1926 1969 1536 1540 1934 1973 1539 1941 1544 
1938 1945 1543 1548 1942 1985 1946 1552 1587 
1989 1950 1556 1591 1993 1954 1560 1524 1595 
1599 1958 1203 1564 1962 1601 1968 1609 1568 
1572 1605 1966 1970 1575 1576 1974 1977 1580 
1621 1579 1978 1584 1981 1583 1223 1588 1625 
1982 1227 1592 1629 1986 1231 1596 1994 1990 
1997 1239 1600 1998 1637 1604 1643 2041 2002 
2043 2004 2042 1608 1612 2045 2008 2047 2049 
1647 2048 1616 2014 1615 2010 2016 2051 2017 
1620 1619 2018 2021 2020 2019 1624 1628 1663 
2061 2022 2024 2028 2027 1632 1631 2030 2026 
2029 2032 2031 1636 1635 1675 2033 2034 2035 
2075 2036 1640 1679 2038 2077 2040 2079 1648 
1644 2044 2083 2081 2119 1651 1652 2050 2046 
2052 2087 2085 1655 1656 2053 2054 2055 2056 
1660 1659 1699 2059 2057 2058 2060 2064 1664 
1668 2065 2062 2063 2068 1667 1671 1672 2069 
2066 2067 2072 2071 2070 1676 2073 2074 2076 
2113 1715 1680 1719 2115 2078 2117 2080 1683 
1684 2082 2084 2118 2159 2123 1687 2089 1692 
2086 1691 2088 2091 2092 2090 1695 1696 2093 
2094 2095 2096 1700 1704 2097 2101 2099 2104 
1703 1708 2105 2102 2103 2108 1707 1712 2109 
2106 2107 2112 2111 1711 1716 2110 2116 2153 
2151 1720 1755 2114 2120 2157 1688 1723 2125 
1728 2121 2122 2128 2129 1727 1732 2126 2127 
2132 1731 2133 1736 2130 2131 2135 1735 2098 
2100 2137 1744 2138 2141 2139 2144 1748 2145 
2142 2143 2148 1747 1752 2149 2146 2147 2152 
2189 1751 1756 1791 2150 2156 2193 2191 1759 
1760 2158 2154 2160 2195 2165 1763 1768 2162 
2168 1767 2169 1772 2166 2167 2171 1771 1775 
2134 2173 2136 2175 2140 1740 1779 2177 2178 
1780 2179 2180 2181 1783 1784 2184 2185 2183 
2182 2188 1788 1787 1792 2187 2186 2192 1827 
2229 1795 1796 2190 2196 2194 1724 1799 2161 
2199 2197 2200 2205 1803 1808 2202 2207 2203 
2204 1811 2170 2172 2209 2211 1776 1815 2213 
2174 2176 2215 1819 1820 2218 2217 2219 2220 
1823 1824 2221 2222 2223 2224 2227 1828 1832 
2225 2228 2226 2267 1831 1835 2232 2233 2230 
2236 2235 2201 1764 1800 2198 2237 1839 2164 
2239 1804 1843 1844 2241 2208 2245 2243 2206 
1847 1812 1851 2210 2249 2212 2251 2247 1816 
1855 2214 2253 2254 2216 2255 1859 1860 2257 
2258 2259 2260 1863 1864 2261 2263 2264 2262 
1871 2265 2269 2272 2266 2268 1836 2234 1875 
2273 2271 2275 1840 2238 2277 1879 2240 2279 
1848 1883 2285 2242 2283 2248 1852 1887 2246 
2289 2252 2287 2250 1856 1891 1896 2293 2291 
2256 2296 2295 1899 1895 1900 2294 2297 2299 
2300 1868 1903 2301 2298 2303 2305 2304 1872 
2270 2309 1911 2311 2307 1907 2308 1876 2274 
1915 2313 2276 2315 2278 1880 1919 2317 2244 
2280 2281 1888 1923 2325 2282 2288 1892 1927 
2329 2286 2292 2327 2290 1931 1936 2333 2331 
2336 2330 1935 1939 2335 2337 2334 2340 1904 
1908 2339 2302 2341 2343 1912 2306 1947 2349 
2310 2312 2347 1951 2351 1916 1955 2314 2353 
2316 2320 1884 1920 2321 2318 2284 2359 1928 
1963 2365 2322 2328 2363 2361 1932 1967 1972 
2326 2332 2369 2367 2372 1975 1971 2373 2370 
2371 2376 1940 1944 2338 2377 2375 2379 1943 
2345 1948 2342 2385 2344 2348 1952 2346 1987 
2389 2352 2387 1956 1991 2350 2354 2355 2356 
2357 1959 1960 1924 1999 2358 2324 2399 2397 
2360 1603 1964 2362 2001 2003 2364 2006 2005 
1607 2366 2368 2007 1611 2009 1976 1980 2012 
2013 2015 2374 2011 1979 2381 1984 2378 2380 
2384 1983 1623 1988 2382 2025 2383 2023 2388 
1627 1992 2386 2390 2392 2391 1995 1996 2393 
2394 2395 2396 1639 2000 2398 2037 2039 2400 
2402 2441 2404 2443 2445 2408 2447 2446 2448 
2449 2451 2452 2453 2414 2418 2420 2419 2423 
2422 2425 2428 2427 2429 2430 2426 2432 2431 
2434 2433 2436 2435 2475 2477 2438 2440 2479 
2481 2442 2444 2483 2519 2482 2485 2487 2489 
2488 2454 2450 2455 2456 2424 2461 2457 2459 
2464 2465 2462 2463 2468 2469 2466 2467 2472 
2471 2470 2473 2474 2476 2513 2515 2517 2478 
2480 2521 2484 2518 2559 2524 2525 2523 2486 
2492 2491 2490 2493 2497 2460 2495 2458 2501 
2499 2504 2502 2505 2503 2508 2509 2506 2507 
2512 2510 2511 2516 2553 2551 2155 2514 2555 
2520 2557 2124 2522 2558 2599 2528 2561 2526 
2529 2527 2531 2533 2494 2496 2535 2537 2500 
2498 2541 2539 2544 2545 2542 2543 2548 2546 
2549 2547 2552 2593 2550 2556 2591 2554 2597 
2595 2560 2163 2565 2563 2567 2562 2569 2530 
2532 2571 2534 2573 2536 2575 2538 2540 2577 
2578 2579 2581 2585 2582 2584 2583 2589 2588 
2587 2586 2592 2231 2629 2633 2590 2596 2631 
2598 2594 2635 2600 2566 2605 2568 2607 2570 
2609 2572 2611 2613 2614 2574 2576 2615 2580 
2617 2618 2619 2620 2621 2623 2624 2622 2625 
2626 2628 2627 2667 2630 2632 2636 2669 2671 
2637 2634 2601 2564 2639 2602 2603 2645 2608 
2643 2606 2610 2649 2612 2647 2651 2653 2654 
2616 2655 2658 2657 2659 2660 2661 2663 2664 
2662 2666 2665 2668 2707 2705 2673 2670 2675 
2672 2638 2677 2604 2640 2685 2642 2648 2683 
2646 2689 2652 2687 2656 2650 2693 2691 2696 
2695 2694 2697 2699 2700 2701 2698 2703 2704 
2702 2743 2706 2709 2711 2708 2713 2674 2676 
2680 2681 2641 2678 2679 2644 2323 2682 2725 
2688 2723 2729 2686 2692 2727 2733 2690 2731 
2736 2730 2734 2735 2737 2740 2739 2738 2741 
2744 2742 2745 2749 2710 2712 2747 2714 2716 
2717 2715 2720 2319 2718 2719 2721 2684 2759 
2722 2765 2728 2763 2761 2726 2769 2732 2767 
2772 2773 2771 2776 2770 2777 2774 2775 2780 
2785 2781 2779 2748 2783 2750 2746 2752 2751 
2753 2754 2755 2756 2757 2724 2758 2760 2799 
2762 2401 2403 2764 2406 2405 2766 2768 2407 
2409 2410 2413 2412 2411 2416 2417 2778 2415 
2784 2421 2786 2782 2788 2787 2789 2790 2792 
2791 2794 2793 2795 2796 2797 2437 2798 2439 
2800 2841 2802 2804 2843 2846 2845 2808 2847 
2849 2853 2851 2816 3182 2821 2814 2820 2819 
2825 2822 2828 2823 2827 2826 2830 2829 2832 
2831 2834 2833 2836 2875 2835 2877 2838 2840 
2879 2881 2842 2844 2883 2882 2885 2848 2852 
2887 2893 2850 2857 2856 2855 2861 2824 2818 
2859 2862 2865 2863 2868 2866 2869 2871 2867 
2872 2870 2873 2876 2913 2874 2917 2915 2878 
2880 2919 2918 2921 2884 2959 2923 2888 2889 
2886 2891 2892 2890 2897 2854 2860 2895 2864 
2858 2901 2899 2904 2905 2902 2903 2908 2909 
2906 2907 2912 2953 2910 2911 2916 2914 2957 
2955 2920 2958 2925 2924 2928 2926 2929 2927 
2931 2894 2896 2933 2900 2935 2898 2941 2937 
2939 2944 2945 2942 2943 2948 2949 2946 2947 
2952 2950 2993 2951 2956 2991 2954 2997 2995 
2960 2961 2922 2965 2963 2967 2930 2969 2932 
2971 2934 2973 2936 2975 2938 2977 2978 2940 
2979 2980 2981 2985 2982 2983 2984 2989 2988 
2986 2987 2992 3029 3033 2990 2996 3031 2994 
2999 2998 3000 2966 3005 2968 3007 2970 3009 
2972 3011 2974 3013 2976 3015 3017 3018 3019 
3020 3021 3022 3023 3024 3025 3026 3027 3028 
3067 3069 3030 3032 3036 3035 2962 2964 3037 
3039 3034 3003 3045 3002 3008 3006 3010 3049 
3012 3051 3047 3014 3053 3054 3016 3055 3057 
3058 3059 3060 3062 3061 3063 3064 3066 3065 
3068 3072 3105 3071 3073 3075 3070 3001 3038 
3004 3040 3043 3085 3042 3048 3083 3089 3046 
3052 3087 3050 3056 3093 3091 3096 3094 3098 
3095 3097 3099 3100 3101 3102 3103 3104 3108 
3109 3107 3111 3106 3074 3076 3077 3080 3041 
3078 3081 3079 3044 3082 3125 3088 3123 3086 
3129 3092 3127 3090 3133 3131 3136 3134 3137 
3135 3140 3138 3139 3141 3143 3110 3112 3145 
3113 3147 3116 3117 3114 3115 3120 3121 3118 
3119 3084 3159 3122 3128 3163 3161 3165 3124 
3132 3126 3169 3167 3130 3173 3170 3171 3176 
3177 3174 3175 3179 3142 3144 3181 3146 3148 
3149 3150 3152 3151 3153 3154 3155 3156 3157 
3160 3158 3199 2801 3162 2803 3164 3172 2806 
3166 2805 3168 2807 2809 2810 2813 2812 2811 
2815 2817 3178 3180 3184 3183 3186 3185 3188 
3187 3189 3190 3192 3191 3193 3194 3195 3196 
3197 2837 3198 2839 3200 3241 3202 3204 3243 
3245 3249 3208 3212 3210 3214 3216 3215 3221 
3217 3218 3220 3219 3225 3224 3228 3227 3226 
3222 3230 3229 3232 3231 3234 3233 3236 3235 
3275 3238 3277 3240 3279 3242 3281 3248 3244 
3247 3246 3251 3252 3250 3254 3255 3253 3256 
3257 3261 3259 3260 3264 3262 3265 3263 3268 
3269 3266 3267 3272 3271 3273 3270 3274 3313 
3276 3278 3317 3280 3319 3315 3318 3285 3283 
3282 3284 3287 3286 3289 3292 3291 3290 3297 
3293 3295 3296 3258 3301 3299 3304 3302 3305 
3303 3308 3309 3306 3307 3312 3353 3310 3311 
3316 3314 3357 3355 3320 3288 3325 3321 3323 
3328 3329 3326 3327 3332 3333 3294 3331 3335 
3300 3337 3298 3341 3339 3338 3344 3345 3342 
3343 3348 3349 3346 3347 3352 3393 3350 3351 
3356 3391 3354 3359 3358 3360 3322 3365 3363 
3368 3362 3330 3367 3371 3369 3334 3373 3336 
3375 3377 3378 3340 3379 3380 3382 3381 3383 
3384 3385 3389 3386 3388 3387 3392 3390 3395 
3396 3394 3324 3397 3361 3399 3366 3405 3403 
3407 3370 3409 3372 3411 3374 3414 3413 3376 
3415 3417 3418 3419 3420 3421 3422 3423 3424 
3425 3426 3427 3428 3432 3429 3433 3431 3430 
3435 3400 3364 3398 3437 3401 3439 3404 3445 
3406 3402 3408 3443 3410 3449 3412 3451 3447 
3453 3454 3416 3455 3457 3458 3459 3460 3461 
3462 3463 3464 3465 3469 3467 3471 3434 3436 
3475 3473 3438 3440 3477 3479 3442 3485 3448 
3483 3446 3489 3452 3487 3456 3450 3493 3490 
3491 3496 3495 3494 3498 3497 3499 3500 3501 
3468 3503 3505 3466 3470 3472 3509 3511 3513 
3474 3476 3515 3441 3481 3478 3444 3480 3525 
3482 3488 3523 3486 3529 3492 3527 3533 3531 
3536 3534 3537 3539 3535 3507 3502 3541 3504 
3508 3506 3549 3512 3547 3510 3517 3514 3551 
3516 3520 3518 3521 3484 3519 3559 3522 3561 
3528 3563 3565 3569 3526 3532 3567 3572 3530 
3573 3570 3571 3575 3538 3540 3577 3544 3545 
3542 3543 3548 3585 3550 3546 3552 3587 3557 
3554 3553 3555 3556 3558 3524 3560 3599 3201 
3562 3203 3564 3206 3205 3566 3568 3207 3209 
3574 3213 3211 3576 3580 3581 3579 3578 3584 
3583 3586 3582 3223 3588 3590 3589 3591 3592 
3594 3593 3595 3596 3237 3598 3597 3239 3600 
2 5 3602 3641 3608 3604 9 10 3610 
3606 3611 3607 370 14 3613 3614 3616 3615 
17 18 3618 3617 3620 3619 3621 22 65 
3622 3624 3628 3663 3626 3661 3630 3629 3632 
3631 34 3634 3633 3636 3635 3675 38 77 
3638 3677 3640 3679 6 3645 3642 3643 3647 
49 3612 3650 50 3649 3652 3651 53 3654 
3653 3655 3656 58 57 3658 3657 3659 3660 
101 3662 3665 3664 3668 69 66 3669 3666 
3667 3672 3671 73 74 3674 3673 3670 70 
3676 41 78 3678 3717 3715 3644 3680 85 
3646 3648 3681 3685 3683 3687 86 3689 3692 
3691 90 3690 94 93 3694 3693 3695 3696 
97 98 3699 3701 3697 3700 3704 3705 3702 
3703 3708 109 3709 3706 3707 106 3712 110 
113 114 3713 3753 3710 3711 3716 3751 42 
81 117 3714 3718 3719 3720 82 3682 3725 
3688 3723 3728 3686 3726 3729 3727 3732 3731 
3730 3733 3735 3736 138 141 3738 3698 3737 
3741 3739 3744 3745 3742 3743 3748 3749 3746 
149 3747 146 3752 153 3750 3754 3755 3756 
121 118 3721 3757 3684 3759 122 3765 165 
3722 3763 3768 3762 162 169 3769 3766 3767 
3772 170 3734 173 3773 3771 3775 178 3777 
3778 3740 177 3779 3780 185 3785 3781 3782 
181 3783 182 3784 3788 150 189 3789 3786 
3787 3791 3793 3760 3790 3795 3797 158 161 
3758 3724 3761 3799 3802 3805 3803 3808 3804 
209 3770 3809 3807 3811 213 3813 3774 3776 
3815 217 3818 3817 3819 218 3820 221 225 
3821 3822 3823 3824 190 3825 3792 3829 3827 
3831 3794 3796 3833 3835 3800 3764 3798 3801 
3837 3839 3845 3841 242 3843 3844 3806 3849 
3810 3812 3851 3847 214 253 254 3814 3853 
3854 3816 3855 261 3857 3858 257 3859 3860 
3861 3828 3865 3863 229 3826 3830 3832 3871 
3869 3834 3836 3873 3875 278 3877 3838 3840 
3879 281 3842 3885 3848 3883 289 3889 3846 
3852 3887 293 250 3850 3893 3856 3891 3896 
3895 258 3897 3894 3899 3864 3901 3867 3862 
3868 3866 3870 3872 3909 3911 3874 3913 3876 
3915 3917 3878 3880 3919 3881 3925 3882 3888 
325 3923 329 286 3929 3886 3892 3927 290 
3890 3933 3931 3935 298 3898 3937 3900 3904 
3907 3905 3902 3903 3908 3949 3906 3912 3947 
3910 3914 3953 3916 3951 3955 3921 3884 3918 
3920 321 3959 3922 3961 3928 3963 3965 330 
326 3926 3969 3932 3967 3971 333 337 3930 
3934 3973 3936 3940 338 341 3938 3939 3944 
3941 3945 3943 3985 3942 3948 3946 3989 3952 
3987 3954 3950 3956 3991 3957 3958 3924 3960 
3999 1 3601 3962 3603 362 3964 366 3605 
3966 3968 3609 3972 374 373 377 3970 3975 
3976 3974 3977 3980 378 3978 3981 3979 3984 
25 3983 3625 3982 3623 3988 386 3990 3986 
3627 3992 394 3993 3994 3995 3996 37 3637 
3998 3997 3639 4000 
type 1 4000 int
1 1 1 1 1 1 1 1 1 
1 1 1 1 1 1 1 1 1 
1 1 1 1 1 1 1 1 1 
1 1 1 1 1 1 1 1 1 
1 1 1 1 1 1 1 1 1 
1 1 1 1 1 1 1 1 1 
1 1 1 1 1 1 1 1 1 
1 1 1 1 1 1 1 1 1 
1 1 1 1 1 1 1 1 1 
1 1 1 1 1 1 1 1 1 
1 1 1 1 1 1 1 1 1 
1 1 1 1 1 1 1 1 1 
1 1 1 1 1 1 1 1 1 
1 1 1 1 1 1 1 1 1 
1 1 1 1 1 1 1 1 1 
1 1 1 1 1 1 1 1 1 
1 1 1 1 1 1 1 1 1 
1 1 1 1 1 1 1 1 1 
1 1 1 1 1 1 1 1 1 
1 1 1 1 1 1 1 1 1 
1 1 1 1 1 1 1 1 1 
1 1 1 1 1 1 1 1 1 
1 1 1 1 1 1 1 1 1 
1 1 1 1 1 1 1 1 1 
1 1 1 1 1 1 1 1 1 
1 1 1 1 1 1 1 1 1 
1 1 1 1 1 1 1 1 1 
1 1 1 1 1 1 1 1 1 
1 1 1 1 1 1 1 1 1 
1 1 1 1 1 1 1 1 1 
1 1 1 1 1 1 1 1 1 