# vtk DataFile Version 4.0
Generated by LAMMPS
ASCII
DATASET POLYDATA
POINTS 4000 float
4.6245 1.65549 1.63119 4.39378 -0.379862 3.53865 6.25736 -0.546063 1.69114 
6.43275 1.59721 3.48113 4.01778 -2.44014 1.71128 8.28994 1.34455 1.5508 
10.1005 -1.26337 1.44068 8.24923 -0.817424 3.55278 10.385 0.993265 3.32443 
12.3396 0.449333 1.27801 14.1549 -1.63436 1.39979 12.0042 -1.29061 3.59107 
14.2056 0.469951 3.25222 16.2095 0.250853 1.32964 18.1909 -2.33701 1.37211 
18.8471 1.87211 1.23159 18.3919 -0.0401536 3.29596 16.145 -1.90397 3.31756 
20.1878 -2.45536 3.25761 20.2856 -0.579788 1.19029 20.6263 1.8544 3.20698 
24.5654 -0.796259 1.30716 22.239 42.665 1.23514 22.3966 -0.538727 3.29328 
22.8055 1.36922 1.45058 24.788 1.30518 3.34995 28.601 -1.51411 1.3049 
26.789 0.812582 1.1762 28.6761 0.742035 3.05673 26.4172 -1.02145 3.39741 
31.1431 0.191865 1.04969 32.6776 -1.97179 1.02513 33.0159 -0.11974 3.38863 
33.0663 2.01592 1.06228 31.3503 2.14101 3.20914 37.9291 -0.0495503 1.65472 
37.885 -2.19912 3.58759 35.0353 -0.0973662 1.22048 2.76058 1.96081 3.6397 
2.87873 4.00169 1.46917 4.87527 5.83827 1.45299 4.62937 3.84095 -0.460568 
2.8324 6.03268 -0.570528 6.66901 3.55157 1.4589 6.79925 5.68138 -0.61539 
4.83924 3.77956 3.72551 2.92473 5.99833 3.5944 8.73853 5.4515 1.30072 
10.7158 3.03956 1.25654 10.8333 5.31462 3.3955 8.67802 3.16125 3.39861 
14.631 2.55761 1.20947 12.9468 4.70885 1.29119 15.2762 6.61268 1.09819 
12.3953 2.96009 3.47691 16.8631 4.33471 1.23149 17.33 6.39953 41.1692 
19.233 6.01375 1.29559 16.6634 2.01566 3.18052 18.8259 4.16347 3.31242 
17.0674 6.28227 3.43998 20.9876 3.99517 1.3766 22.9386 3.61716 3.19164 
21.042 5.95889 3.40022 23.2921 5.39406 1.12397 25.0926 3.15267 1.16106 
25.331 5.1181 3.22173 27.4001 4.798 1.36182 27.004 2.80212 3.21352 
29.1456 2.55102 1.13607 29.6076 4.28827 3.11807 31.4227 4.06662 1.11304 
32.7063 4.42443 3.50564 36.3522 2.40774 1.58863 34.5758 2.2745 3.58457 
36.6311 6.4585 1.44549 34.4469 4.44718 1.56647 34.6685 6.77689 3.42503 
36.5972 4.21262 3.54711 38.043 2.02857 -0.377775 36.2182 4.33031 -0.605841 
3.24874 8.10952 1.44299 5.32973 9.97947 1.37464 5.08646 7.79909 -0.640461 
3.32324 10.1697 -0.592258 7.0691 7.65958 1.40013 11.13 7.1621 1.38035 
9.46018 9.47215 1.4896 7.32229 9.84245 -0.359118 11.3405 9.30383 -0.609527 
8.96698 7.45384 -0.61896 13.1987 6.92897 3.45689 13.4072 8.86838 1.3277 
15.8453 10.7163 1.52539 13.8708 10.7776 -0.583939 13.0928 6.73668 -0.643837 
15.6263 8.54359 41.176 17.5919 8.3504 1.23618 19.7133 10.0798 1.29449 
17.7881 10.4267 3.54942 19.2978 8.34311 3.35471 19.5518 8.03089 41.1637 
17.7235 10.43 -0.618863 21.2881 7.65632 1.27983 23.7298 9.17245 1.00633 
23.3808 7.24528 3.18643 21.6798 9.74654 3.3173 25.602 6.92399 1.1983 
27.7713 6.61053 3.59028 27.7742 8.61324 1.04797 26.03 10.9356 0.989718 
25.8032 8.76555 3.35405 28.9283 9.16973 3.46922 30.8154 6.62535 3.6104 
32.6201 6.5958 1.60513 29.4512 6.44666 1.16178 30.9031 8.7099 1.5743 
33.096 10.9064 1.20359 32.734 8.72387 -0.482465 31.0665 10.9417 -0.270574 
36.7681 8.32423 -0.492187 37.0076 8.43135 3.41174 37.0994 10.3386 1.37867 
34.7263 8.5743 1.35098 35.2289 10.6983 41.342 3.5682 12.1118 1.41779 
5.54504 12.0368 -0.574367 5.72358 13.8275 1.50813 3.86077 14.2047 -0.649821 
9.55025 11.3909 -0.541214 7.56616 11.8239 1.50257 9.64611 13.6039 1.57798 
9.55828 11.3521 3.55408 10.1589 15.415 -0.417303 7.84501 13.7015 -0.471016 
11.8945 13.0608 -0.419347 11.736 11.2517 1.51344 14.1751 12.9547 1.5223 
16.0503 15.236 1.50602 15.9317 12.8446 -0.4989 12.1739 15.1985 1.51722 
14.0131 15.2067 -0.570218 17.7258 12.6665 1.70248 20.2903 13.8029 1.2261 
20.1512 12.0846 3.13103 22.0684 11.4546 1.06135 24.1783 11.0144 3.08674 
24.3089 13.1474 1.14743 22.5601 13.4366 3.35215 22.6222 15.2803 1.19403 
20.7255 15.3983 3.35873 26.9648 11.1051 3.45745 29.2039 11.1994 1.67212 
27.3027 13.5456 1.71929 27.4417 15.5948 -0.401313 29.0972 13.071 -0.585314 
31.2685 13.0633 1.59064 29.5491 15.3222 1.20057 31.8021 15.2344 -0.483633 
33.563 14.9849 1.35007 33.5104 12.8662 41.1717 35.251 12.5327 1.28388 
37.235 12.4607 -0.441769 37.5908 14.4414 1.28695 35.5754 14.7762 -0.671961 
4.25464 16.2012 1.48349 6.04911 15.7537 41.2317 6.29458 17.9236 1.62932 
4.43698 18.2833 -0.489821 6.51987 19.9952 -0.651605 7.88536 15.5722 1.51981 
10.3208 17.5547 1.66766 8.07389 17.5952 -0.223403 8.54836 19.9855 1.41651 
10.371 19.9698 -0.321807 14.1751 17.4845 1.45374 12.1436 17.5778 -0.357087 
12.3325 19.6663 1.69695 18.6328 16.12 1.18836 16.7305 18.1402 0.762794 
18.9099 17.8086 3.40908 19.276 19.763 1.24984 17.0596 19.9048 3.11742 
23.6476 15.9116 3.58391 20.9291 17.4626 1.06411 23.749 17.8011 1.5773 
21.827 18.0361 3.48888 23.8455 19.976 -0.261598 25.7052 15.8047 1.63946 
27.6379 17.6109 1.55468 25.9914 19.9312 1.55823 28.0357 19.6667 -0.560102 
25.8097 17.9236 -0.48532 31.6264 17.2567 1.34298 29.7266 17.4864 -0.447518 
29.8833 19.7344 1.64324 31.8032 19.087 -0.726303 33.7148 16.9739 -0.580696 
2.47932 18.5492 1.38181 37.7511 16.6548 -0.549791 35.8361 16.6978 1.3382 
33.8002 19.0146 1.34606 36.0635 18.7978 -0.459214 4.4073 20.2537 1.3793 
6.68817 22.3825 1.47531 4.57494 24.3498 1.55425 4.5753 22.1265 -0.506583 
2.51944 22.5163 1.52842 2.82022 24.4724 -0.599344 6.65448 24.4806 -0.401341 
10.4764 22.2358 1.59722 8.56123 22.4575 -0.328593 9.26871 25.0061 40.8047 
8.59637 24.4807 1.81306 11.3941 24.703 0.711899 15.0144 20.3383 1.03743 
13.1365 22.5115 0.959804 15.2623 24.3272 0.956954 15.1172 22.077 3.02368 
13.2852 24.4824 3.053 17.2805 21.8848 1.0852 18.179 22.4487 3.63814 
18.2502 24.4015 1.68858 20.1768 22.3239 1.69484 20.2366 24.4945 -0.51044 
22.0019 20.2767 1.74948 22.2459 24.3205 1.39976 24.0686 22.1967 1.56741 
24.3667 24.1239 -0.654949 21.9135 22.2179 -0.469138 28.0244 21.8259 1.54095 
26.3905 24.1547 1.31851 26.0054 21.9648 -0.462269 28.3162 23.5963 -0.724213 
32.1061 21.2906 1.29299 30.3222 23.4467 1.28023 29.9778 21.4461 -0.680261 
32.1172 23.0816 41.0059 36.3519 20.533 1.55225 34.2163 20.9485 -0.647709 
34.3379 23.1493 1.14095 36.3768 22.7882 -0.693154 2.64355 20.4012 -0.690387 
4.76284 26.4747 -0.41628 2.70045 26.551 1.60944 3.09673 28.6048 -0.456153 
4.8466 28.4386 1.55541 6.76983 26.4092 1.55539 9.2196 26.9551 0.633986 
7.37727 28.9907 0.904695 9.37934 28.9155 2.9201 13.4467 26.5254 0.661807 
11.5687 28.7511 0.830206 14.5963 28.9857 1.28231 14.2668 27.1479 3.28557 
11.2978 26.6305 2.7343 16.4376 26.7812 1.51273 16.5783 29.1743 -0.526756 
18.7488 28.8466 1.49598 18.2991 26.6595 -0.441806 20.6133 26.8104 1.25392 
22.8274 28.3872 1.39632 22.562 26.4039 41.0378 20.6121 28.6929 -0.665461 
24.5132 25.9249 1.4039 24.6491 28.0011 -0.58299 28.6342 25.6289 1.19303 
26.7316 27.7996 1.3911 28.4931 27.5836 41.1559 26.3941 25.9357 -0.644444 
32.4914 25.091 1.06738 30.6109 27.3895 1.23273 30.5117 25.2604 41.096 
32.7483 27.094 41.1691 34.5872 24.9411 41.121 36.5501 24.6415 1.34364 
34.7274 26.945 1.33848 36.9258 28.8183 1.73034 36.6329 26.8801 -0.651613 
34.8364 28.9281 41.2548 5.8461 31.527 1.10001 6.20895 33.4762 3.12038 
3.16235 30.8323 1.78184 3.98334 33.9034 1.17875 9.82616 31.081 0.762761 
7.88296 33.4143 0.859062 7.72152 31.1685 3.02472 12.3438 29.3973 3.38634 
12.6639 31.264 1.37927 14.7344 31.4598 -0.625025 14.9498 33.4633 1.50265 
14.8142 31.1744 3.20658 13.0466 33.529 -0.602849 16.7417 30.9433 1.37857 
18.9663 32.9644 1.34326 18.7614 30.907 -0.743598 17.014 32.9212 3.44954 
21.049 30.7843 1.31881 23.2291 32.4741 1.44141 20.9537 32.422 41.1669 
22.9199 30.1866 -0.571472 22.6605 30.541 3.39222 21.0504 32.8985 3.37795 
28.9867 29.6436 1.48287 25.0101 30.0349 1.37972 27.0077 29.807 -0.719043 
27.2259 31.8132 1.40134 25.1822 31.925 -0.537471 29.2741 31.4991 -0.674386 
29.425 33.7659 1.42441 32.8159 29.098 1.26296 31.0751 31.3658 1.27793 
30.9383 29.2169 41.0843 33.254 33.1319 1.48215 31.3111 33.4564 -0.69849 
33.2227 31.1325 -0.683228 35.1525 30.8272 1.3312 37.1547 32.7135 1.4856 
35.4792 33.1244 -0.633736 36.9948 30.7208 -0.639089 6.40144 35.7349 0.977388 
4.31076 38.1042 0.985599 4.33898 35.7666 3.21441 2.42439 36.3224 1.17293 
2.56545 38.0868 3.43196 9.07125 33.9513 3.65847 10.7693 33.7239 1.52661 
9.0504 36.0433 1.47855 7.35828 36.1487 3.69079 11.3586 37.8455 1.4303 
11.1881 35.7397 3.36368 10.9832 35.8667 -0.458527 13.0514 35.5605 1.25099 
15.3739 37.2579 1.34732 15.0427 35.4844 41.1301 12.8604 33.3828 3.14342 
13.4223 37.5238 3.51066 15.2089 35.2725 3.48044 17.0447 35.1991 1.22522 
19.2617 36.9384 1.24498 17.3214 37.2141 3.23216 21.1807 34.6348 1.26801 
23.6457 36.4685 1.10222 21.3771 36.6758 3.19836 23.3202 34.6399 3.22688 
25.499 34.1348 1.27132 27.462 35.9264 1.22367 25.5984 36.3091 3.41127 
29.5657 35.7765 3.32234 27.8336 37.7705 41.1702 31.7924 35.5303 1.37198 
33.6548 35.0261 41.2577 29.9493 37.7349 1.28632 29.8107 35.6664 -0.759039 
31.9491 37.2898 41.3004 34.0467 37.4119 1.27727 35.6501 35.1137 1.49459 
35.9146 36.6518 41.1953 5.55816 38.5302 3.72009 5.68288 40.5529 1.61611 
3.81271 40.6323 3.79412 2.78623 40.3886 1.18122 6.11453 42.5628 3.69063 
9.64917 40.0985 1.57485 7.3318 38.2515 1.62099 7.99024 42.4334 1.70594 
9.54942 37.9967 3.50053 7.7297 40.3691 3.69028 9.9702 42.0736 3.56819 
13.6341 39.5274 1.48647 11.5262 39.9062 3.46462 11.9789 41.9219 1.33406 
13.9034 41.6468 3.47774 15.5427 39.3671 3.43137 17.5629 39.2902 1.17898 
15.6604 41.5427 1.20097 19.7907 40.83 1.24228 17.8192 41.0807 3.35467 
19.5552 38.8963 3.26651 21.7149 38.6189 1.17832 24.0079 40.4322 1.20182 
23.7128 38.6932 3.17517 21.9412 40.7476 3.21367 24.0356 42.4423 3.30604 
26.1417 42.2719 1.35309 28.3236 41.9389 3.20584 25.7074 38.1659 1.21215 
28.0239 39.8957 1.2575 26.0313 40.1757 3.29463 30.3415 41.6893 1.15421 
32.1774 39.5109 1.2005 34.1418 39.529 3.23871 30.1431 39.5065 41.1763 
36.7321 42.8712 0.977387 34.7652 42.9547 3.19316 34.2143 39.2043 41.0153 
36.2577 38.9745 1.12935 34.5016 41.3131 1.01733 36.6715 40.7462 3.15574 
4.74148 1.78698 5.70592 4.29562 -0.602339 7.76303 6.51646 1.26629 7.65892 
[...]
POINT_DATA 4000
FIELD FieldData 6
id 1 4000 int
8 405 7 406 3 12 11 409 410 
16 15 413 414 20 19 59 418 417 
421 24 461 28 23 422 63 465 32 
67 469 426 36 35 434 75 473 4 
401 40 402 43 48 45 42 47 46 
445 442 52 51 450 449 55 56 95 
453 60 97 99 457 458 497 64 462 
501 103 68 505 72 466 71 470 76 
474 79 477 44 80 478 441 41 78 
83 88 85 82 87 91 92 86 90 
89 493 96 135 133 93 94 100 139 
537 498 98 137 104 108 502 541 107 
509 112 147 506 510 513 115 111 116 
120 114 153 81 481 84 119 118 123 
125 128 122 129 127 132 529 169 126 
130 131 136 175 134 171 173 140 144 
538 143 545 148 542 183 581 549 151 
152 189 150 155 156 154 160 157 159 
121 124 158 163 165 168 162 205 167 
172 166 207 209 176 170 211 179 180 
578 219 617 585 184 188 582 225 187 
191 192 190 186 195 193 196 194 197 
164 161 199 200 198 203 208 243 202 
204 241 245 212 206 249 247 251 215 
216 255 614 653 220 618 259 224 261 
223 228 227 226 222 231 232 229 230 
235 236 233 234 239 237 240 238 201 
242 244 281 283 248 252 287 689 256 
291 295 654 650 260 297 264 258 263 
268 265 262 267 266 271 272 270 269 
275 276 273 274 277 279 280 319 278 
317 288 725 284 323 292 327 686 693 
296 294 300 697 333 299 304 301 698 
303 308 302 305 705 702 311 307 309 
312 306 310 351 315 316 313 355 353 
314 320 359 357 318 328 363 722 324 
761 729 331 332 726 336 733 330 335 
340 337 694 734 737 339 344 738 343 
348 742 745 347 352 746 750 389 356 
354 391 350 393 395 360 358 765 368 
762 364 766 371 367 372 730 769 770 
375 773 376 774 777 379 380 384 778 
781 383 388 785 782 425 27 429 387 
392 786 31 396 794 390 39 437 397 
399 400 798 408 805 806 407 768 1166 
412 809 411 810 416 415 814 813 420 
419 459 817 818 821 424 428 463 865 
861 423 822 432 826 467 869 430 471 
436 440 830 438 802 403 439 801 443 
448 447 846 845 842 451 446 849 452 
850 454 455 456 854 495 853 857 460 
858 897 499 901 464 503 862 468 905 
472 507 866 909 475 476 480 404 479 
444 841 485 483 482 488 885 882 489 
490 486 487 889 492 886 491 890 494 
496 535 533 894 893 933 500 898 539 
937 941 504 902 543 508 511 512 906 
516 945 515 514 517 520 519 484 518 
881 918 522 525 523 925 528 922 526 
527 569 532 969 573 530 531 534 536 
571 934 577 540 575 977 579 938 544 
548 942 981 546 547 551 552 550 554 
557 555 553 556 560 558 521 559 524 
562 605 563 965 565 568 567 566 572 
607 609 570 613 576 611 1013 574 615 
580 978 584 583 588 586 587 589 591 
592 590 594 593 595 596 597 600 598 
599 561 564 602 641 603 608 643 604 
645 606 649 612 647 1010 610 616 651 
621 619 620 622 623 625 628 627 626 
1025 986 1026 630 629 631 632 1030 633 
634 635 636 637 601 639 638 640 642 
648 644 683 681 646 652 687 685 655 
656 657 624 661 659 664 1022 1061 665 
662 663 668 667 666 1065 1062 1066 669 
671 670 672 1069 675 674 673 676 715 
677 678 679 680 717 719 682 684 723 
721 1121 690 691 688 692 1125 1086 660 
695 700 1097 658 699 701 704 1058 1098 
1101 1105 703 708 707 1102 710 706 1109 
709 712 711 1106 1110 713 714 716 1113 
753 755 757 718 720 759 728 724 1122 
1161 727 696 731 1133 1094 735 736 1137 
740 1134 741 739 744 1141 743 1145 748 
1142 751 749 747 752 1189 789 1146 1149 
754 793 756 795 791 797 758 760 799 
1158 1197 763 767 764 732 772 1170 1169 
771 1130 775 776 1174 1177 1173 779 780 
1181 1178 784 783 788 1182 825 1185 427 
787 792 829 1186 790 433 431 796 435 
800 1162 808 803 807 1206 812 811 1210 
1209 816 815 1213 1214 820 859 824 819 
1218 1221 1217 828 1265 863 1222 1261 832 
1269 867 1226 871 836 873 1230 834 804 
840 839 843 848 1245 1242 847 1246 851 
852 1249 1250 1253 855 856 1254 860 1258 
1257 899 1297 864 903 1301 1262 868 1305 
872 907 1266 877 875 870 876 880 1274 
838 878 879 844 883 888 1285 887 891 
892 1290 1289 1286 1293 895 896 1294 1333 
935 900 939 1337 1298 904 1302 943 1341 
913 911 908 912 947 874 914 917 915 
916 920 884 919 1281 1318 923 928 1325 
1322 929 926 927 931 932 1326 1329 1369 
930 1330 936 1334 971 973 975 940 979 
1338 1377 944 948 946 983 910 949 951 
952 950 954 957 955 953 956 960 1357 
1354 921 958 924 959 962 963 1365 968 
966 1009 967 972 1007 970 1011 976 1370 
1413 974 1017 1015 980 1019 1374 985 987 
984 982 988 989 990 992 991 1390 993 
997 994 995 996 1000 961 1361 998 999 
964 1005 1002 1045 1003 1008 1043 1004 1006 
1049 1012 1406 1047 1449 1053 1016 1055 1051 
1410 1014 1021 1018 1020 1024 1023 1028 1027 
1426 1429 1029 1032 1031 1033 1034 1035 1036 
1001 1037 1038 1039 1040 1401 1041 1042 1048 
1044 1081 1083 1046 1089 1052 1087 1085 1485 
1054 1057 1050 1056 1091 1060 1493 1059 1064 
1063 1068 1067 1465 1462 1466 1071 1072 1070 
1470 1073 1074 1075 1076 1473 1077 1078 1079 
1080 1117 1119 1082 1084 1123 1521 1482 1088 
1092 1127 1093 1095 1096 1100 1099 1498 1501 
1104 1103 1108 1107 1505 1502 1506 1509 1112 
1510 1111 1151 1153 1115 1114 1116 1155 1514 
1513 1553 1118 1120 1159 1157 1124 1128 1163 
1090 1129 1131 1132 1136 1135 1534 1140 1537 
1139 1138 1144 1538 1541 1143 1148 1545 1542 
1147 1152 1589 1549 1550 1187 1546 1154 1150 
1156 1554 1191 1195 1193 1160 1199 1558 1597 
1126 1165 1168 1164 1167 1171 1172 1570 1573 
1175 1176 1574 1577 1180 1179 1184 1581 1578 
823 1183 1188 1585 1225 1582 827 1192 1229 
1586 1190 833 831 1233 1590 1196 835 1194 
1198 837 1200 1594 1202 1205 1208 1204 1641 
1212 1610 1207 1211 1216 1215 1614 1613 1220 
1618 1224 1259 1219 1617 1621 1228 1263 1665 
1661 1622 1267 1232 1271 1626 1234 1273 1236 
1275 1238 1240 1279 1277 1247 1243 1248 1649 
1251 1252 1650 1646 1653 1255 1256 1654 1657 
1260 1658 1299 1697 1264 1268 1303 1662 1705 
1701 1309 1272 1307 1669 1666 1311 1270 1313 
1276 1315 1241 1278 1244 1280 1717 1282 1283 
1288 1685 1682 1291 1287 1689 1292 1686 1690 
1729 1693 1295 1296 1694 1733 1335 1300 1698 
1339 1737 1345 1304 1308 1343 1306 1310 1312 
1347 1349 1314 1317 1316 1351 1320 1319 1284 
1323 1328 1725 1327 1332 1367 1331 1769 1726 
1373 1371 1730 1336 1734 1773 1375 1340 1379 
1344 1342 1348 1383 1381 1385 1346 1352 1350 
1387 1355 1353 1356 1360 1358 1321 1721 1324 
1359 1758 1362 1405 1363 1368 1403 1805 1762 
1366 1409 1372 1407 1809 1411 1376 1415 1770 
1378 1417 1380 1419 1421 1382 1384 1388 1423 
1391 1389 1386 1392 1393 1397 1394 1395 1396 
1794 1797 1399 1761 1364 1398 1400 1798 1402 
1441 1445 1408 1404 1841 1443 1802 1845 1412 
1451 1447 1806 1414 1453 1416 1455 1457 1418 
1420 1459 1422 1425 1424 1428 1430 1427 1431 
1432 1830 1435 1433 1434 1436 1833 1801 1439 
1437 1438 1440 1479 1838 1442 1481 1448 1444 
1483 1842 1881 1489 1446 1452 1487 1450 1454 
1491 1456 1495 1461 1458 1460 1464 1858 1897 
1463 1468 1467 1866 1469 1472 1471 1869 1870 
1475 1474 1476 1874 1873 1478 1517 1477 1877 
1480 1519 1488 1525 1523 1484 1486 1492 1529 
1527 1494 1490 1496 1531 1497 1894 1499 1500 
1504 1503 1508 1905 1507 1906 1902 1511 1512 
1910 1909 1913 1515 1516 1555 1914 1953 1518 
1557 1520 1559 1957 1565 1522 1528 1524 1561 
1563 1530 1526 1532 1567 1533 1535 1536 1540 
1539 1941 1544 1938 1543 1548 1945 1942 1547 
1946 1552 1587 1949 1551 1950 1593 1556 1591 
1993 1954 1595 1560 1599 1566 1201 1203 1562 
1568 1564 1569 1571 1572 1966 1575 1576 1974 
1580 1977 1579 1978 1584 1981 1583 1223 1588 
1985 1625 1982 1989 1227 1986 1592 1629 1235 
1990 1231 1596 1237 1598 1239 1600 1602 1604 
1643 2041 1606 1609 1608 1612 1611 1616 2014 
1615 1620 1619 2018 1624 1659 2017 2061 1628 
1663 2022 1630 1632 1631 2030 1671 1673 1634 
1636 1675 1633 2034 2073 1677 1638 1640 1679 
1642 1645 1648 1644 1647 1651 1652 2050 1655 
1656 1695 2053 2054 2057 1660 2097 2058 1699 
1664 1668 1703 2065 2062 1709 1667 1672 1707 
2066 1713 1670 1711 1674 1676 1715 1678 1680 
1719 2078 2117 1683 1688 2082 2089 1687 1692 
2086 1691 2129 2093 1696 2094 1735 2090 1731 
2133 1741 1700 2098 1704 1739 1702 1745 1708 
1743 1749 1706 1712 1747 1710 1753 1714 1716 
1755 1751 1681 1684 1718 1720 2118 1722 1765 
1723 2125 1728 2122 2165 1727 1732 1767 2126 
2169 1736 1771 2130 1775 2137 1738 1740 1779 
1744 1777 1742 1748 1783 1785 1781 1746 1752 
1789 1787 1750 2150 1754 1756 1791 1759 1757 
1724 1760 1763 1768 2162 2205 1766 1772 1807 
1811 2166 1813 1776 1774 1815 1817 1780 1778 
1819 1821 1782 1784 1788 1823 2221 1786 1825 
1790 1792 1827 1793 1795 1796 1764 1799 1800 
2198 1803 1808 1843 1804 2202 1810 1849 1812 
1847 1851 1814 1816 1855 1853 1818 1857 1820 
1859 2218 1822 1861 1824 1863 2222 1831 1828 
1826 1829 1832 2265 2237 1835 1834 1836 2234 
2201 1839 1837 1840 2238 1885 1848 1883 1844 
1846 1852 1889 1887 1850 1854 1856 1895 1893 
1891 2293 1860 1899 1862 1865 1864 1868 1871 
1867 1872 2270 1875 1876 2273 2274 1917 1878 
2277 1879 1880 1919 1882 1888 1923 1925 1929 
1886 1892 1927 1890 1931 1896 1933 1898 1935 
1900 1901 1904 1903 1908 1907 1912 2306 2309 
1911 2310 1915 1916 1955 2314 2313 1918 1921 
1884 1920 2317 1922 1961 1928 1963 1924 1965 
1926 1932 1969 1967 1934 1930 1936 1971 1937 
1939 1940 1944 1943 2345 1948 2342 1947 2349 
1952 2346 1951 1987 2353 2350 1956 1991 1959 
1958 1960 1999 1962 1605 1603 1968 1964 1601 
1970 1607 1972 2366 1973 1975 1976 1980 1979 
2021 1984 2381 2378 1983 2385 1623 2025 1988 
2382 1627 1992 2386 2389 1994 1995 1635 1996 
2394 2033 1637 1639 1997 1998 2000 2002 2043 
2004 2008 2045 2006 2012 2047 2445 2449 2010 
2016 2015 2414 2020 2418 2059 2019 2421 2024 
2028 2425 2027 2422 2029 2026 2032 2031 2069 
2429 2426 2469 2036 2433 2434 2071 2075 2430 
2473 2038 2077 2040 2079 2042 2044 2083 2481 
2081 2442 2049 2046 2048 2485 2052 2446 2055 
2051 2091 2056 2454 2453 2450 2095 2457 2060 
2064 2101 2458 2461 2465 2063 2068 2105 2109 
2067 2072 2107 2509 2074 2470 2070 2076 2111 
2115 2113 2474 2513 2080 2119 2085 2088 2482 
2521 2084 2087 2489 2092 2486 2127 2493 2490 
2096 2131 2494 2099 2100 2104 2497 2103 2102 
2145 2108 2143 2106 2506 2112 2149 2147 2549 
2114 2110 2151 2116 2153 2553 2514 2120 2155 
2157 2159 2518 2123 2525 2128 2163 2522 2561 
2529 2132 2167 2526 2530 2134 2135 2136 2533 
2141 2138 2139 2140 2179 2181 2185 2144 2142 
2148 2183 2585 2146 2189 2187 2152 2589 2546 
2156 2193 2191 2550 2121 2154 2124 2158 2160 
2195 2554 2558 2168 2565 2562 2170 2172 2171 
2213 2173 2175 2174 2176 2215 2177 2178 2180 
2217 2219 2182 2184 2223 2225 2582 2188 2186 
2192 2629 2227 2229 2625 2190 2231 2194 2196 
2633 2161 2199 2197 2164 2200 2598 2207 2203 
2208 2209 2206 2212 2210 2211 2610 2214 2216 
2255 2251 2253 2257 2220 2259 2261 2224 2263 
2661 2228 2226 2230 2232 2267 2669 2233 2235 
2236 2630 2601 2239 2204 2240 2638 2245 2242 
2243 2248 2283 2241 2285 2289 2246 2247 2249 
2252 2287 2250 2254 2256 2295 2291 2297 2258 
2260 2299 2264 2301 2262 2303 2271 2268 2269 
2266 2272 2275 2276 2674 2244 2278 2279 2280 
2677 2325 2282 2288 2323 2321 2329 2286 2292 
2327 2686 2729 2290 2333 2296 2331 2694 2733 
2294 2335 2298 2337 2300 2339 2305 2302 2304 
2308 2311 2307 2312 2710 2713 2315 2316 2281 
2318 2284 2319 2320 2365 2322 2328 2324 2363 
2361 2326 2332 2369 2367 2373 2330 2336 2371 
2338 2377 2334 2375 2340 2341 2343 2344 2348 
2749 2347 2351 2352 2387 2746 2354 2355 2356 
2397 2359 2358 2357 2360 2399 2797 2001 2362 
2003 2364 2762 2005 2368 2009 2007 2372 2409 
2013 2374 2370 2011 2376 2770 2379 2380 2384 
2785 2023 2383 2388 2782 2390 2392 2391 2790 
2393 2035 2793 2395 2396 2039 2037 2398 2400 
2798 2437 2402 2441 2802 2404 2443 2841 2408 
2406 2412 2806 2845 2447 2410 2451 2416 2853 
2810 2849 2420 2424 2818 2428 2825 2423 2822 
2432 2427 2826 2829 2830 2431 2436 2834 2475 
2471 2873 2833 2438 2477 2440 2479 2877 2838 
2444 2881 2842 2483 2448 2885 2487 2846 2889 
2455 2452 2456 2850 2857 2854 2460 2459 2464 
2462 2505 2463 2468 2865 2466 2467 2472 2507 
2869 2866 2909 2511 2476 2874 2515 2870 2478 
2517 2480 2878 2519 2917 2523 2484 2921 2882 
2925 2488 2492 2886 2890 2491 2495 2496 2500 
2501 2498 2499 2504 2545 2503 2905 2502 2902 
2508 2945 2512 2547 2906 2949 2510 2516 2551 
2914 2910 2953 2555 2520 2918 2557 2559 2957 
2528 2524 2922 2599 2961 2965 2527 2531 2532 
2926 2535 2536 2534 2934 2538 2537 2539 2937 
2541 2540 2579 2941 2543 2544 2542 2942 2548 
2583 2581 2981 2985 2587 2552 2989 2591 2593 
2556 2993 2597 2595 2560 2958 2954 2997 2563 
2568 2567 2566 2571 2569 2570 2572 2573 2613 
2575 2574 2576 2615 2974 2617 2577 2578 2580 
2619 2977 2978 3017 2584 2623 2588 2621 2586 
2592 2627 3029 2986 3025 2590 2596 2631 3033 
2990 2594 2994 2635 2564 2600 2602 2605 2603 
2608 2607 2606 2611 2609 2612 3010 3013 2614 
2616 3014 3053 2651 2655 2653 2618 2657 2620 
2659 3018 2624 2622 2663 3061 2626 2628 2632 
2667 2665 3026 3069 2634 2636 2671 2675 3030 
2637 2639 2604 2640 2643 2645 2642 2648 2647 
2649 2646 2652 2687 3049 2689 2654 2650 2656 
2691 2693 3054 2658 2697 2660 2695 2699 3097 
2701 2664 2662 2703 3062 2705 2709 2668 2666 
2672 2707 3066 2673 2670 2676 2680 2711 2641 
2678 2644 2679 2682 2685 2683 2688 2723 2725 
3125 2692 2727 2690 2696 2731 3133 2735 2698 
2700 2737 2739 3094 3098 2704 2741 2702 2743 
2744 2706 2708 2712 2747 2714 2717 2715 2716 
2681 2721 2684 2718 2719 2720 2761 2722 2765 
2728 2763 2724 3122 2726 2732 2767 2769 2730 
2773 2736 2771 3173 2734 2775 3134 2777 2740 
3177 2780 2781 2745 2742 2738 2779 2748 2783 
2750 2752 2751 2753 2754 2755 2756 3154 2757 
2758 2759 2760 2799 3121 2401 2801 2403 3162 
2764 2405 2768 2766 2407 2809 2772 2413 2411 
2776 3170 2778 2417 2415 2774 2419 3174 2786 
2784 2788 2787 2789 2792 2791 2794 2435 2795 
2796 3194 2439 2837 2800 3198 3197 2804 2843 
3241 3202 2808 3245 2812 3206 2847 3249 2851 
2816 3210 3214 2814 2820 2819 2821 2824 2828 
2823 3225 3222 2832 3229 2827 3226 2831 2836 
2875 3273 3233 2871 2835 3234 2840 2879 3238 
3277 2844 2883 3242 3281 2848 2852 2887 2891 
2856 2855 2860 2893 2858 2861 3261 2859 3258 
2864 2862 2863 2868 3262 3265 2867 3269 3266 
2872 3309 2876 2913 2915 2911 3274 3270 3313 
2880 2919 3278 3317 2884 2923 2959 2888 2892 
2929 2927 2894 2895 2896 2897 3297 3294 2901 
2899 3301 2898 2900 2904 3298 2903 3302 2908 
3305 3345 2907 2912 2947 3306 3349 3310 2916 
3353 2951 3314 2955 2920 3318 3357 2928 2924 
2963 2930 2932 2931 2933 2936 2935 3334 2939 
2938 2940 2979 3341 3337 3338 2943 2944 2948 
3342 2983 3385 3381 2946 2952 3346 3389 2987 
2950 2956 2991 3350 3393 2995 2960 2999 3354 
2966 2967 2962 2968 2964 2969 2972 2971 2970 
2975 2973 2976 3015 3374 2980 3019 3378 3377 
3417 3021 2982 2984 2988 3382 3023 3421 3425 
2992 3027 3429 3386 2996 3031 3390 2998 3037 
3035 3000 3039 3002 3003 3005 3008 3006 3009 
3409 3007 3012 3410 3011 3413 3016 3414 3051 
3055 3020 3059 3057 3457 3022 3024 3063 3461 
3065 3028 3465 3426 3032 3067 3071 3036 3073 
3075 3034 3001 3038 3004 3040 3045 3042 3445 
3043 3048 3442 3089 3046 3047 3052 3087 3050 
3093 3056 3091 3095 3450 3493 3058 3060 3099 
3497 3458 3101 3064 3103 3462 3501 3105 3109 
3068 3072 3107 3111 3074 3070 3076 3077 3080 
3078 3079 3041 3044 3082 3085 3083 3088 3123 
3525 3086 3129 3092 3486 3127 3090 3096 3131 
3494 3533 3135 3137 3100 3139 3537 3498 3141 
3102 3104 3143 3110 3108 3106 3112 3145 3113 
3115 3117 3114 3116 3120 3081 3084 3118 3119 
3161 3165 3128 3522 3124 3561 3163 3565 3126 
3132 3167 3169 3569 3530 3130 3136 3573 3171 
3534 3175 3140 3179 3142 3181 3146 3138 3144 
3148 3149 3150 3147 3152 3151 3550 3153 3155 
3156 3157 3159 3158 3160 3558 2803 3168 3562 
3164 3201 2805 3166 3205 2807 3209 3172 3566 
2811 2815 3570 2813 3176 2817 3178 3180 3184 
3185 3182 3183 3221 3188 3187 3586 3189 3186 
3190 3589 3192 3191 3590 3193 3195 3196 3594 
3199 2839 3200 3237 3598 3602 3204 3641 3645 
3243 3208 3212 3247 3606 3216 3614 3215 3217 
3218 3220 3219 3618 3224 3661 3228 3622 3621 
3232 3626 3231 3227 3630 3629 3230 3236 3235 
3275 3633 3634 3240 3638 3677 3279 3248 3283 
3244 3285 3246 3251 3252 3650 3255 3250 3254 
3253 3256 3653 3259 3257 3260 3264 3657 3263 
3662 3268 3665 3669 3267 3272 3666 3673 3271 
3311 3276 3713 3670 3674 3315 3280 3319 3678 
3717 3282 3321 3288 3284 3289 3286 3287 3292 
3291 3290 3295 3293 3296 3299 3300 3304 3701 
3698 3705 3303 3308 3702 3307 3312 3749 3347 
3709 3706 3351 3316 3710 3753 3355 3714 3320 
3359 3325 3323 3322 3328 3329 3326 3327 3332 
3330 3367 3331 3333 3335 3336 3734 3339 3340 
3737 3738 3741 3343 3745 3344 3348 3383 3785 
3742 3352 3387 3746 3789 3356 3391 3395 3750 
3793 3358 3397 3324 3360 3361 3362 3366 3365 
3363 3368 3403 3371 3369 3372 3370 3770 3373 
3375 3376 3415 3774 3773 3379 3380 3419 3777 
3778 3781 3384 3423 3782 3821 3388 3825 3392 
3786 3427 3433 3396 3431 3394 3364 3398 3399 
3400 3437 3402 3406 3405 3408 3404 3407 3412 
3810 3411 3813 3453 3451 3416 3455 3853 3418 
3420 3459 3818 3857 3424 3861 3422 3463 3822 
3469 3428 3432 3467 3430 3434 3435 3436 3401 
3438 3439 3440 3477 3479 3443 3448 3842 3447 
3446 3449 3452 3489 3487 3889 3849 3454 3456 
3495 3491 3854 3850 3893 3460 3499 3897 3858 
3464 3468 3503 3505 3471 3470 3466 3472 3513 
3475 3474 3473 3476 3515 3478 3441 3444 3480 
3485 3482 3483 3488 3523 3529 3492 3527 3929 
3886 3531 3490 3496 3933 3890 3500 3539 3535 
3894 3541 3502 3504 3508 3509 3511 3506 3549 
3507 3512 3514 3517 3510 3551 3516 3518 3481 
3484 3519 3520 3881 3528 3965 3524 3563 3922 
3961 3526 3532 3926 3567 3969 3536 3571 3575 
3930 3538 3540 3577 3544 3545 3542 3543 3548 
3546 3547 3552 3949 3587 3553 3555 3554 3556 
3557 3521 3559 3560 3958 3601 3203 3564 3962 
3568 3605 3207 3572 3966 3574 3213 3211 3576 
3581 3579 3578 3580 3978 3584 3582 3223 3625 
3585 3583 3985 3588 3982 3591 3592 3593 3595 
3596 3597 3239 3637 3599 3997 3600 3998 6 
2 3608 3604 3643 10 9 3610 3612 3611 
3613 13 14 3616 3615 21 3617 18 3620 
3659 3619 17 3624 61 22 3628 3663 26 
30 3632 3631 65 34 33 3636 3675 3635 
38 77 3640 3679 3642 3681 3648 3644 49 
50 3649 3647 3646 3652 3651 3654 53 54 
3655 3656 3658 57 58 3660 3699 3664 101 
62 3668 69 66 3667 3672 70 73 113 
74 3671 3676 3715 3711 117 3680 3719 3685 
3682 3683 3688 3687 3689 3686 3692 3691 3693 
3694 3690 3695 3696 3735 3697 3700 3704 105 
102 3703 3708 145 109 3707 106 149 3712 
3747 110 3716 3751 3755 3718 3757 3684 3720 
3725 3723 3722 3728 3726 3729 3727 3732 3733 
3730 3731 3771 3736 3739 138 3740 177 141 
3744 3743 185 181 142 3748 3783 146 3752 
3787 3754 3756 3791 3760 3758 3759 3721 3724 
3765 3805 3763 3762 3768 3803 3766 3769 3767 
3772 3807 174 3775 3776 3815 178 217 3779 
3817 3780 3819 182 3784 3788 221 3823 3829 
3792 3827 3790 3794 3795 3796 3800 3764 3797 
3761 3799 3798 3841 3802 3808 3843 3804 3806 
3809 3812 210 3811 3851 213 214 3814 3816 
3855 253 218 257 3820 3859 3865 3824 3828 
3863 3826 3830 3831 3832 3833 3834 3835 3836 
3801 3837 3838 3839 3840 3879 3845 3848 3844 
289 246 3846 3847 3852 3887 254 250 293 
3856 3891 3895 3860 3899 3901 3864 3862 3868 
3867 3870 3869 3871 3866 3872 3873 3874 3875 
3876 3913 3915 3877 3878 3917 3880 3919 282 
285 3925 3883 3885 3882 3888 325 3923 329 
286 3892 3927 3931 290 3896 3935 298 3898 
3937 3900 3904 3902 3905 3903 3908 3907 3906 
3909 3912 3911 3914 3953 3910 3916 3951 3955 
3884 3918 3920 321 365 322 3928 3924 3963 
361 326 369 3932 3967 334 3934 3973 3936 
3971 3940 338 3938 341 3939 3944 3941 342 
345 3945 3942 3943 3948 346 349 3946 3989 
3947 3952 3987 3954 3950 3956 3991 3921 3959 
3957 3960 3603 1 5 362 3968 3964 366 
3609 3607 3972 370 374 377 3970 373 3975 
3976 3974 3977 378 381 3981 3979 3980 3984 
25 385 382 3623 3983 3988 386 3986 3990 
29 3627 3992 3994 3993 394 3995 3996 3639 
3999 398 37 4000 
type 1 4000 int
1 1 1 1 1 1 1 1 1 
1 1 1 1 1 1 1 1 1 
1 1 1 1 1 1 1 1 1 
1 1 1 1 1 1 1 1 1 
1 1 1 1 1 1 1 1 1 
1 1 1 1 1 1 1 1 1 
1 1 1 1 1 1 1 1 1 
1 1 1 1 1 1 1 1 1 
1 1 1 1 1 1 1 1 1 
1 1 1 1 1 1 1 1 1 
1 1 1 1 1 1 1 1 1 
1 1 1 1 1 1 1 1 1 
1 1 1 1 1 1 1 1 1 
1 1 1 1 1 1 1 1 1 
1 1 1 1 1 1 1 1 1 
1 1 1 1 1 1 1 1 1 
1 1 1 1 1 1 1 1 1 
1 1 1 1 1 1 1 1 1 
1 1 1 1 1 1 1 1 1 
1 1 1 1 1 1 1 1 1 
1 1 1 1 1 1 1 1 1 
1 1 1 1 1 1 1 1 1 
1 1 1 1 1 1 1 1 1 
1 1 1 1 1 1 1 1 1 
1 1 1 1 1 1 1 1 1 
1 1 1 1 1 1 1 1 1 
1 1 1 1 1 1 1 1 1 
1 1 1 1 1 1 1 1 1 
1 1 1 1 1 1 1 1 1 
1 1 1 1 1 1 1 1 1 
1 1 1 1 1 1 1 1 1 