# vtk DataFile Version 4.0
Generated by LAMMPS
ASCII
DATASET POLYDATA
POINTS 4000 float
0.293641 1.77205 1.89037 4.15874 1.88158 1.78691 2.36465 3.84809 1.75707 
2.33418 1.65196 3.98583 4.29305 -0.139026 3.92841 4.21706 3.84551 3.94365 
0.377611 3.6709 3.83043 8.28233 1.92994 1.9351 6.09599 3.81272 1.84951 
6.22131 2.02288 3.98261 8.20769 3.89142 3.85391 12.2741 1.71377 1.94628 
10.1647 3.99095 1.96022 10.2682 1.85762 3.89214 12.1979 3.8457 3.96453 
10.1562 -0.275047 1.85924 12.2275 -0.301191 3.88211 12.219 3.95466 -0.212065 
16.2595 1.82823 1.96008 14.1183 3.86996 1.93764 14.1878 1.52558 3.9696 
16.1389 3.84997 3.90192 16.1663 -0.164599 3.9703 20.3946 1.84331 1.73259 
18.3091 3.88919 1.95654 22.3565 3.86446 1.71859 18.3145 1.67081 4.05865 
22.414 1.89277 3.87726 20.455 3.78831 3.88872 24.3785 1.81307 1.63313 
24.3785 3.8754 -0.266218 26.2008 3.82002 1.78892 26.3654 1.7841 3.93887 
24.2509 3.92913 3.84574 26.3948 1.83316 -0.314996 24.2584 -0.200796 -0.236846 
30.3776 1.79231 -0.384581 28.499 1.81753 1.72171 30.2907 3.87229 1.55272 
30.1284 1.94676 4.04802 28.251 4.08557 3.86522 28.3359 -0.257111 4.00929 
32.1865 1.87603 1.70337 34.2975 3.75865 1.98013 34.1352 1.73192 3.86942 
32.2111 3.9814 3.8362 38.1334 1.74621 -0.248776 36.2863 1.65822 1.89602 
38.121 3.75379 1.80471 38.262 1.74404 3.9943 36.3107 3.83583 4.01824 
36.1225 3.88666 -0.321233 4.38806 6.02377 1.59925 2.37529 7.93361 1.69434 
4.32339 7.95603 -0.207569 2.08353 5.96033 3.87161 0.270174 7.94824 3.68486 
4.30656 8.08427 3.85138 0.445428 5.83275 1.79673 0.334801 7.93105 -0.425121 
2.39308 6.01116 -0.529221 8.44642 6.04375 1.94213 6.37808 7.88887 1.73583 
6.21231 6.02374 3.85871 8.24826 8.18083 3.82366 12.3009 6.06231 1.93214 
10.4355 8.13366 1.61734 12.4891 8.04422 -0.200381 10.3954 5.92391 4.02612 
12.3014 8.02773 3.82614 10.4732 6.00771 -0.137286 14.2921 5.94923 -0.0663284 
16.2626 5.88067 1.89674 14.3582 7.96959 2.03648 14.2509 5.81013 3.94547 
16.358 8.05295 4.02202 20.3073 5.93579 1.86254 18.2131 7.99824 1.86869 
22.248 7.87117 1.88393 18.2668 5.80482 3.86792 22.2608 5.94277 3.9103 
20.3146 7.78248 3.75299 24.1973 6.02422 1.64082 26.1713 7.83743 1.79499 
26.1008 5.88714 3.79523 24.2221 7.75728 3.79034 28.0998 5.95269 1.77277 
28.1492 7.81925 -0.262375 30.2803 7.82081 1.77652 30.3038 5.8533 3.84428 
28.4118 7.98392 3.84598 34.2331 5.97852 -0.115521 32.3672 5.84409 1.73628 
34.3241 7.76859 1.88446 34.3353 5.97858 3.94117 32.325 7.96215 3.77858 
38.2614 5.90636 -0.325215 36.2527 5.89216 1.83997 36.2641 7.86801 -0.258274 
38.3161 8.12785 1.70088 38.2816 5.93275 3.91817 36.3478 7.84091 3.91055 
2.33625 9.8442 -0.455478 4.31893 10.0212 1.61423 2.3477 12.0751 1.65942 
2.25739 10.0381 3.54509 4.16694 11.9531 3.75723 6.40043 9.86449 -0.0954267 
8.34158 9.93338 1.79047 6.38845 12.0676 1.82898 6.19462 9.9451 3.79687 
8.3404 12.1825 3.89382 10.2046 10.0707 -0.337995 12.5028 10.0724 1.91426 
10.3172 11.9035 1.80076 10.3838 9.99654 3.79421 12.2565 12.1495 3.97875 
14.3735 10.1475 -0.181359 16.3545 9.97521 1.86106 14.3449 12.0938 2.05675 
16.4472 12.0673 -0.36069 14.2322 9.90316 4.01932 16.4385 11.9351 4.07268 
18.3021 10.0086 -0.253525 20.1992 9.94166 1.93647 18.3092 12.0116 1.83554 
22.1575 11.9347 1.82283 18.4043 9.85756 3.96894 22.2581 9.81845 3.92272 
20.4352 12.001 4.04334 24.2099 10.0345 1.78493 26.1814 12.0885 1.68025 
26.1897 9.80861 3.82519 24.2053 12.1533 3.76014 30.2508 9.93886 -0.116874 
28.1204 9.94084 1.82347 30.2255 12.1341 1.74974 30.3266 9.95179 3.51651 
28.1985 12.0108 3.8145 32.4814 9.91841 1.78032 34.2115 12.1351 1.69741 
34.2704 9.97378 3.91743 32.2674 11.9014 3.78767 34.3941 9.88199 -0.221024 
40.2959 10.1276 1.71075 40.1529 12.1598 3.76009 36.1251 10.0283 1.75731 
38.1882 12.0098 1.85862 38.1277 10.0107 3.70681 36.1239 12.1023 3.74605 
36.2658 12.0854 -0.227802 2.10175 13.896 -0.321496 4.22109 14.0913 1.6278 
2.11256 15.9291 1.82655 2.33413 13.9546 3.7144 4.25475 15.8193 3.90617 
8.42048 13.9052 1.69658 6.52565 16.0179 1.73953 6.30828 14.1164 3.70272 
8.35009 15.9913 3.90815 10.3957 14.1561 -0.100904 12.2711 13.9363 1.80983 
10.4844 15.9976 1.91164 12.3522 16.0238 -0.326418 10.368 14.0804 4.04482 
12.3991 16.0936 3.95467 16.2986 14.0129 1.85065 14.4837 15.947 1.88318 
14.2659 13.97 3.99941 16.3308 16.1617 3.85643 18.3088 14.1248 -0.293354 
20.2275 14.2659 1.92627 18.1068 16.1719 1.97399 22.1239 16.1142 1.97221 
18.2934 13.9537 3.95273 22.1485 14.1008 4.04266 20.1954 16.1298 4.05445 
24.0888 14.16 1.72299 26.1876 16.0849 1.71941 26.2813 14.0185 3.89065 
24.1439 16.0982 3.75185 24.1621 16.1721 -0.269022 30.252 14.2416 -0.247822 
28.2374 14.1356 1.91933 28.2385 16.1435 -0.150561 30.2799 16.0909 1.89292 
30.3294 14.1229 3.86476 28.2117 16.1401 3.93634 32.3734 14.0038 1.73172 
34.2377 16.2567 1.78446 34.0327 14.0852 3.87714 32.2286 16.2365 3.9368 
34.1697 14.2917 -0.172043 40.1209 14.0388 1.66897 40.1576 16.1846 -0.305118 
39.989 16.0123 3.69284 36.2097 14.1374 1.82959 38.0635 16.2453 1.75508 
38.1915 14.1828 3.89146 36.2514 16.1207 3.78508 36.2706 16.2771 -0.243025 
4.209 17.8745 1.75075 2.22427 20.1761 1.71023 4.19645 22.3168 1.95006 
2.16602 17.9204 3.63855 0.299983 20.2209 3.88179 2.19219 22.3318 3.73745 
4.20921 20.1069 3.7159 2.35546 22.2391 -0.483559 8.29722 18.1519 2.01266 
6.17309 20.0975 1.8523 8.19027 22.1407 1.83549 6.33226 18.0241 3.94715 
6.37943 22.0834 3.80877 8.21442 20.0079 3.934 6.35261 17.9169 -0.0621659 
10.1946 18.1254 -0.234203 12.308 18.0387 1.74678 10.2614 20.2274 1.7942 
12.2373 22.3285 1.75555 10.3543 18.4198 3.93575 10.2464 22.043 3.9545 
12.3148 20.1863 3.78901 14.2074 18.2246 -0.246476 16.2512 18.3297 1.78599 
14.209 20.2815 1.82123 16.1837 22.2347 1.88221 14.3301 18.2427 3.75389 
14.2549 22.2683 3.93063 16.2826 20.3728 3.8436 14.1442 22.2656 -0.230564 
20.2274 18.4769 1.84234 18.3334 20.2543 1.8242 20.3028 20.23 -0.332158 
22.4179 20.2487 1.78188 20.2635 22.3795 1.73869 18.3563 18.3122 3.97974 
22.1057 18.2034 3.73816 18.3416 22.3635 3.83916 20.235 20.3913 3.93247 
22.3495 22.3669 3.83763 24.1578 18.0784 1.76866 26.2986 20.2206 1.65498 
24.4197 22.3341 1.94506 26.1161 18.1233 3.85397 24.1882 20.1451 3.74511 
26.3612 22.2722 3.9806 26.1744 18.2144 -0.313535 28.1691 18.1233 1.71966 
30.3094 22.4285 -0.253382 30.1522 20.098 1.82975 28.1767 22.316 1.89943 
30.1749 18.1319 3.72372 28.4152 20.3214 3.92062 30.2875 22.2899 3.89491 
30.2148 18.2749 -0.446532 28.2911 20.3313 -0.336393 34.1576 18.2413 -0.214496 
32.2188 18.1779 1.85417 34.1281 20.4526 1.89325 32.2394 22.3287 1.65964 
34.1871 18.3331 3.82594 32.2242 20.2796 3.82956 34.3568 22.5077 3.90836 
32.0507 20.249 -0.225169 34.1168 22.4876 -0.170369 40.1273 18.2057 1.78834 
40.2793 22.3939 1.72167 36.1304 18.2242 1.79359 38.3745 21.9247 -0.248782 
38.173 20.2139 1.89492 36.3437 22.3042 1.65446 38.0969 18.1936 3.83358 
36.2415 20.4602 3.76967 38.362 22.3891 3.78064 36.179 20.2117 -0.0492165 
2.27607 24.3634 1.69875 0.396093 26.4529 1.75796 4.34398 26.2602 1.77806 
2.28408 26.2221 3.94506 4.21895 24.3344 3.90413 0.258878 24.49 3.85044 
4.30571 24.1586 -0.192678 6.35359 24.2665 1.84349 8.17496 26.3648 1.67452 
6.26427 26.3157 3.97004 8.40627 24.2924 3.74323 6.36005 26.4006 -0.182712 
8.30388 24.2536 -0.4255 10.3352 26.2205 -0.302982 10.1397 24.2241 1.53211 
12.3383 26.4978 1.8844 10.2491 26.2244 3.93079 12.2308 24.1434 3.72172 
12.2586 24.3901 -0.317549 14.2454 26.4414 -0.105724 14.2814 24.3252 1.84838 
16.3495 26.3765 1.94092 14.2402 26.3995 3.90848 16.3866 24.333 3.79223 
18.1368 24.4455 1.6525 22.2231 24.3069 1.92612 20.1351 26.2778 1.83027 
18.2556 26.2687 3.89359 20.3193 24.3247 4.00741 22.1537 26.404 3.96338 
26.3278 24.5157 1.81083 24.2116 26.3938 2.02724 24.2994 24.2247 4.00981 
26.2759 26.4088 4.06074 30.2692 24.2707 1.8822 28.2467 26.3645 1.9406 
28.2822 24.2558 3.7891 30.1678 26.2624 3.9816 30.1879 26.3922 -0.10018 
34.4949 24.496 1.83172 32.2712 26.2533 1.86399 32.39 24.2224 3.69164 
34.3227 26.4507 3.8704 32.2696 24.5482 -0.321941 36.3389 24.392 -0.166696 
38.2567 26.2561 -0.145195 38.2063 24.333 1.7655 36.4131 26.4539 1.81779 
36.1971 24.5442 3.91496 38.4404 26.4407 3.79718 2.32876 28.552 1.89571 
0.434269 30.4994 1.90718 4.28502 28.4322 -0.442945 4.32924 30.3468 1.63499 
2.36964 30.5361 3.82391 4.31764 28.1711 3.60444 0.455777 28.3828 3.99403 
6.34859 28.4168 1.71368 8.14139 30.4377 1.87656 6.25296 30.3495 3.7966 
8.37018 28.303 3.75256 8.29064 28.3682 -0.0505666 10.2661 28.3049 1.77276 
12.2557 28.2557 -0.220338 12.1055 30.5447 1.83274 10.2453 30.4277 3.82597 
12.2104 28.4147 3.87926 14.1953 28.5113 1.78303 16.1364 30.4754 1.72406 
14.0881 30.4309 3.86624 16.1475 28.5923 3.9173 18.1306 28.476 1.83511 
22.1926 28.3901 1.85636 20.1288 30.434 1.92469 18.2839 30.4466 3.88564 
20.1368 28.3037 3.86862 22.1462 30.3015 3.93652 18.105 30.5558 -0.311408 
24.301 28.5782 -0.0540547 26.1689 28.2166 2.10966 24.2253 30.4252 2.00557 
24.1682 28.5801 4.097 26.1225 30.4697 4.06245 26.3226 30.6006 -0.128011 
30.1919 30.563 -0.0948595 30.2099 28.4648 1.88258 28.1553 30.3698 2.13846 
28.2391 28.5334 3.95385 30.2155 30.4762 3.99061 32.2802 28.4003 -0.175986 
34.1826 30.5435 -0.0473644 34.2708 28.4317 1.83393 32.2187 30.3801 1.74157 
32.222 28.2596 3.93132 34.4146 30.4633 3.81722 36.3614 28.4371 -0.209161 
38.3296 28.5304 1.81537 36.3432 30.3983 1.75434 36.5065 28.4019 3.84383 
38.4231 30.5431 3.82917 2.51439 32.6096 1.82138 0.473046 34.557 1.62501 
4.30036 34.5554 1.76576 2.19912 34.6689 3.82718 4.38045 32.7064 3.91336 
6.11537 32.5916 1.7384 8.31946 34.6054 1.95059 6.35267 34.6092 4.02 
8.20675 32.419 3.87943 6.37078 34.698 -0.159461 10.2699 32.6182 1.85376 
12.2448 34.5282 1.89359 10.266 34.6181 3.90501 12.2902 32.5304 3.83749 
14.2084 32.5037 1.85266 16.318 34.5546 1.94039 14.1326 34.7625 3.98677 
16.2775 32.4355 3.84641 18.2988 32.326 1.95635 22.0726 32.4676 1.84722 
20.1279 34.4914 1.92317 18.1492 34.7584 3.98372 20.2662 32.5828 3.948 
22.2283 34.5645 3.93284 18.3425 34.4852 -0.122649 20.136 32.4641 -0.262798 
[...]
POINT_DATA 4000
FIELD FieldData 6
id 1 4000 int
4 8 43 402 405 445 441 12 47 
406 449 16 51 410 453 11 413 53 
20 55 414 457 417 24 59 63 418 
422 461 28 65 67 426 465 26 25 
30 32 71 430 469 429 36 75 434 
473 38 40 79 438 477 77 48 83 
85 442 481 485 44 81 42 52 87 
446 489 56 91 93 450 493 50 54 
60 95 454 497 64 99 103 458 462 
501 68 107 466 505 72 109 111 470 
509 74 76 115 474 513 78 80 117 
119 478 517 82 88 123 482 525 86 
92 127 486 529 90 96 131 490 533 
94 100 135 137 494 537 98 104 139 
143 498 502 541 108 147 506 545 110 
112 151 510 549 116 155 514 553 114 
84 521 120 159 518 557 157 122 128 
163 522 565 132 167 526 569 130 136 
171 173 530 573 140 175 534 577 138 
144 179 183 538 542 581 148 187 546 
585 185 150 152 189 191 550 589 156 
195 554 593 154 124 161 561 160 199 
558 597 197 168 203 208 562 601 602 
605 202 172 207 212 566 606 609 166 
170 176 211 216 570 610 613 174 180 
215 220 574 614 617 214 184 219 221 
223 224 578 582 618 621 622 188 227 
228 586 625 626 186 192 230 231 232 
590 629 630 190 229 194 196 235 236 
594 633 634 233 234 164 204 200 238 
239 240 598 637 638 237 243 244 248 
642 645 641 245 247 252 646 649 246 
249 250 251 256 650 653 253 254 255 
260 654 657 259 263 264 658 661 662 
267 268 665 666 271 272 669 670 270 
275 276 673 674 273 277 278 279 280 
677 678 283 284 285 288 682 685 681 
287 292 686 689 289 291 293 296 690 
693 295 300 694 697 299 303 304 698 
701 702 298 305 307 308 705 706 306 
310 311 312 709 710 313 314 315 316 
713 714 317 319 320 717 718 323 324 
328 722 725 327 332 726 729 326 331 
336 730 733 335 340 734 737 339 343 
344 738 741 742 338 341 345 347 348 
745 746 346 351 352 749 750 349 355 
356 753 754 354 721 359 360 757 758 
3 361 363 365 368 762 765 362 7 
409 367 372 766 769 371 373 376 770 
773 370 15 375 380 774 777 23 421 
19 379 381 382 383 384 778 781 782 
425 27 387 388 785 786 31 391 392 
789 790 35 433 395 396 793 794 401 
39 364 761 437 399 400 797 798 1 
37 397 404 408 443 802 845 407 412 
447 806 849 411 416 451 810 813 853 
420 455 814 857 817 424 459 463 818 
821 822 861 419 423 428 467 825 826 
865 427 432 471 829 830 869 431 436 
475 834 873 435 833 841 440 479 837 
838 877 439 448 483 842 885 444 452 
487 846 889 456 491 850 893 460 495 
854 897 464 499 503 858 862 901 468 
507 866 905 472 511 870 909 476 515 
874 913 881 480 519 878 917 488 523 
882 925 484 921 492 527 886 929 496 
531 890 933 500 535 894 937 504 539 
543 898 902 941 508 547 906 945 512 
551 910 949 516 555 914 953 520 559 
918 957 528 563 922 965 532 567 926 
969 536 571 930 973 540 575 934 977 
544 579 583 938 942 981 548 587 946 
985 552 591 950 989 556 595 954 993 
524 961 560 599 958 997 568 603 608 
962 1005 572 607 612 966 1006 1009 576 
611 616 970 1010 1013 580 615 620 974 
1014 1017 584 619 623 624 978 982 1018 
1021 1022 588 627 628 986 1025 1026 592 
631 632 990 1029 1030 596 635 636 994 
1033 604 564 1001 600 639 640 998 1037 
1038 1002 643 644 648 1042 1045 647 652 
1046 1049 651 656 1050 1053 655 660 1054 
1057 659 663 664 1058 1061 1062 667 668 
1065 1066 671 672 1069 1070 1034 675 676 
1073 1074 1041 679 680 1077 1078 683 688 
1082 1085 1081 687 692 1086 1089 691 696 
1090 1093 695 700 1094 1097 699 703 704 
1098 1101 1102 707 708 1105 1106 711 712 
1109 1110 715 716 1113 1114 684 719 720 
1117 1118 723 724 728 1122 1125 727 732 
1126 1129 731 736 1130 1133 735 740 1134 
1137 739 743 744 1138 1141 1142 747 748 
1145 1146 751 752 1149 1150 755 756 1153 
1154 1121 759 760 1157 1158 403 805 763 
768 1162 1165 1161 809 767 772 1166 1169 
771 776 1170 1173 415 775 780 1174 1177 
779 783 784 1178 1181 1182 787 788 1185 
1186 791 792 1189 1190 795 796 1193 1194 
801 764 799 800 1197 1198 808 843 1202 
1241 1245 1201 807 812 847 1206 1209 1249 
816 851 1210 1213 1253 820 855 1214 1257 
824 859 863 1218 1222 1261 823 1221 827 
828 867 1225 1226 1265 832 871 1230 1269 
831 1229 836 875 1234 1273 804 840 879 
1237 1238 1277 844 848 883 1242 1281 1285 
852 887 1246 1289 856 891 1250 1293 860 
895 1254 1297 864 899 903 1258 1262 1301 
868 907 1266 1305 872 911 1270 1309 876 
915 1274 1313 880 919 1278 1317 888 923 
1282 1325 1321 892 927 1286 1329 896 931 
1290 1333 900 935 1294 1337 904 939 943 
1298 1302 1341 908 947 1306 1345 912 951 
1310 1349 916 955 1314 1353 884 920 959 
1318 1357 928 963 1322 1365 932 967 1326 
1369 936 971 1330 1373 940 975 1334 1377 
1338 944 979 983 1342 1381 948 987 1346 
1385 952 991 1350 1389 956 995 1354 1393 
924 1361 960 999 1358 1397 968 1003 1008 
1362 1402 1405 1004 972 1007 1012 1366 1409 
976 1011 1016 1370 1410 1413 980 1015 1020 
1374 1414 1417 984 1019 1023 1024 1378 1382 
1418 1421 1422 988 1027 1028 1386 1425 1426 
992 1031 1032 1390 1429 1430 996 1035 1036 
1394 1433 1434 964 1401 1000 1039 1040 1398 
1437 1438 1043 1044 1048 1442 1445 1441 1406 
1047 1052 1446 1449 1051 1056 1450 1453 1055 
1060 1454 1457 1059 1063 1064 1458 1461 1462 
1067 1068 1465 1466 1071 1072 1469 1470 1075 
1076 1473 1474 1079 1080 1477 1478 1083 1088 
1482 1485 1087 1092 1486 1489 1091 1096 1490 
1493 1095 1100 1494 1497 1099 1103 1104 1498 
1501 1502 1107 1108 1505 1506 1111 1112 1509 
1510 1115 1116 1513 1514 1481 1084 1119 1120 
1517 1518 1123 1124 1128 1522 1525 1127 1132 
1526 1529 1131 1136 1530 1533 1135 1140 1534 
1537 1139 1143 1144 1538 1541 1542 1147 1148 
1545 1546 1151 1152 1549 1550 1155 1156 1553 
1554 1521 1159 1160 1557 1558 803 1205 1163 
1168 1562 1565 1167 1172 1566 1569 811 1171 
1176 1570 1573 815 1217 1175 1180 1574 1577 
819 1179 1183 1184 1578 1581 1582 1187 1188 
1585 1586 1191 1192 1589 1590 835 1233 1195 
1196 1593 1594 1561 839 1164 1199 1200 1597 
1598 1208 1243 1602 1605 1645 1641 1212 1247 
1606 1609 1649 1216 1251 1610 1653 1220 1255 
1614 1657 1219 1223 1224 1259 1263 1618 1622 
1661 1228 1267 1625 1626 1665 1232 1271 1630 
1669 1235 1236 1275 1634 1673 1204 1240 1279 
1638 1677 1239 1244 1248 1283 1642 1685 1252 
1287 1646 1689 1256 1291 1650 1693 1260 1295 
1654 1697 1299 1264 1303 1658 1662 1701 1268 
1307 1666 1705 1272 1311 1670 1709 1276 1315 
1674 1713 1681 1280 1319 1678 1717 1288 1323 
1682 1725 1292 1327 1686 1729 1296 1331 1690 
1733 1300 1335 1694 1737 1304 1339 1343 1698 
1702 1741 1704 1308 1347 1706 1745 1312 1351 
1710 1749 1316 1355 1714 1753 1284 1721 1320 
1359 1718 1757 1328 1363 1722 1761 1765 1332 
1367 1726 1769 1336 1371 1730 1773 1340 1375 
1734 1777 1344 1379 1383 1738 1742 1781 1348 
1387 1746 1785 1352 1391 1750 1789 1356 1395 
1754 1793 1324 1360 1399 1758 1797 1368 1403 
1404 1408 1762 1802 1805 1364 1372 1407 1412 
1766 1806 1809 1376 1411 1416 1770 1810 1813 
1380 1415 1420 1774 1814 1817 1384 1419 1423 
1424 1778 1782 1818 1821 1822 1388 1427 1428 
1786 1825 1826 1392 1431 1432 1790 1829 1830 
1396 1435 1436 1794 1833 1834 1801 1400 1439 
1440 1798 1837 1838 1443 1448 1841 1842 1845 
1447 1452 1846 1849 1451 1456 1850 1853 1455 
1460 1854 1857 1459 1463 1464 1858 1861 1862 
1467 1468 1865 1866 1471 1472 1869 1870 1475 
1476 1873 1874 1444 1479 1480 1877 1878 1483 
1484 1488 1881 1882 1885 1487 1492 1886 1889 
1491 1496 1890 1893 1495 1500 1894 1897 1499 
1503 1504 1898 1901 1902 1507 1508 1905 1906 
1511 1512 1909 1910 1515 1516 1913 1914 1519 
1520 1917 1918 1523 1528 1922 1925 1921 1527 
1532 1926 1929 1531 1536 1930 1933 1535 1540 
1934 1937 1539 1543 1544 1938 1941 1942 1547 
1548 1945 1946 1551 1552 1949 1950 1555 1556 
1953 1954 1524 1559 1560 1957 1958 1203 1563 
1564 1568 1962 1965 1961 1207 1567 1572 1966 
1969 1211 1613 1571 1576 1970 1973 1215 1617 
1575 1580 1974 1977 1621 1579 1583 1584 1978 
1981 1982 1227 1587 1588 1985 1986 1231 1629 
1591 1592 1989 1990 1633 1595 1596 1993 1994 
1601 1637 1599 1600 1997 1998 1608 1643 2001 
2002 2004 2008 2043 2045 2041 1612 1647 2006 
2012 2047 2049 1616 1651 2010 2016 2051 2053 
1611 2011 2013 1620 1655 2014 2020 2055 2057 
1615 2015 1624 1659 1663 2018 2019 2022 2023 
2024 2059 2061 2063 2021 1628 1667 2025 2026 
2028 2065 2027 2067 1632 1671 2030 2032 2069 
2071 1636 1675 2034 2036 2073 2075 1604 1640 
1679 2037 2038 2039 2040 2077 2079 1639 1648 
1683 2042 2048 2081 2083 2085 1652 1687 2046 
2052 2087 2089 1656 1691 2050 2056 2091 2093 
1660 1695 2054 2060 2095 2097 1699 2058 1664 
1703 2062 2064 2099 2101 2103 1668 1707 2066 
2068 2105 2107 1672 1711 2070 2072 2109 2111 
1676 1715 2074 2076 2113 2115 2044 1644 1680 
1719 2078 2080 2117 2119 1688 1723 2082 2084 
2088 2121 2123 2125 1692 1727 2086 2092 2127 
2129 1696 1731 2090 2096 2131 2133 1700 1735 
2094 2100 2135 2137 1739 1743 2098 2102 2104 
2139 2141 2143 1708 1747 2106 2108 2145 2147 
1712 1751 2110 2112 2149 2151 1716 1755 2114 
2116 2153 2155 1684 1720 1759 2118 2120 2157 
2159 1728 1763 2122 2128 2163 2165 2161 1732 
1767 2126 2132 2167 2169 1736 1771 2130 2136 
2171 2173 1740 1775 2134 2140 2175 2177 1783 
1744 1779 2138 2142 2144 2181 2183 1748 1787 
2146 2148 2185 2187 1752 1791 2150 2152 2189 
2191 1756 1795 2154 2156 2193 2195 1724 2124 
1760 1799 2158 2160 2197 2199 1764 1768 1803 
1804 1808 2162 2168 2202 2203 2205 2208 1772 
1807 1812 2166 2172 2206 2209 2212 2207 1776 
1811 1816 2170 2176 2210 2211 2213 2216 1780 
1815 1820 2174 2180 2214 2215 2217 2220 1784 
1819 1823 1824 2178 2182 2184 2218 2219 2221 
2222 2223 2224 1788 1827 1828 2186 2188 2225 
2226 2227 2228 1792 1831 1832 2190 2192 2229 
2230 2231 2232 1796 1835 1836 2194 2196 2233 
2234 2235 2236 2164 2204 2201 1800 1839 1840 
2198 2200 2237 2238 2239 2240 1843 1848 2242 
2243 2245 2248 1847 1852 2246 2247 2249 2252 
1851 1856 2250 2251 2253 2256 1855 1860 2254 
2255 2257 2260 1859 1863 1864 2258 2259 2261 
2262 2263 2264 1867 1868 2265 2266 2267 2268 
1871 1872 2269 2270 2271 2272 1875 1876 2273 
2274 2275 2276 2244 1844 2241 1879 1880 2277 
2278 2279 2280 1883 1888 2282 2283 2285 2288 
1887 1892 2286 2287 2289 1891 1896 2290 2293 
1895 1900 2294 2295 2297 2300 1899 1903 1904 
2298 2299 2301 2302 2303 2304 1907 1908 2305 
2306 2308 2307 1911 1912 2309 2310 2311 2312 
1915 1916 2313 2314 2315 2316 1884 2284 2281 
1919 1920 2317 2318 2319 2320 1923 1928 2322 
2323 2325 2328 1927 1932 2326 2327 2329 2332 
1931 1936 2330 2331 2333 2336 1935 1940 2334 
2335 2337 2340 1939 1943 1944 2338 2339 2341 
2342 2343 2344 1947 1948 2345 2346 2347 2348 
1951 1952 2349 2350 2351 2352 1955 1956 2353 
2354 2356 1924 2321 2324 1959 1960 2357 2358 
2359 2360 1603 2003 2005 1963 1964 1968 2362 
2363 2365 2368 2364 2009 1607 2007 1967 1972 
2366 2367 2369 2372 1971 1976 2370 2371 2373 
2376 2017 1975 1980 2374 2375 2377 2380 1623 
1619 1979 1983 1984 2378 2379 2381 2382 2383 
2384 1627 1987 1988 2385 2386 2387 2388 2029 
2031 1631 1991 1992 2389 2390 2391 2392 1635 
2033 2035 1995 1996 2393 2394 2395 2396 2361 
1999 2000 2397 2398 2399 2400 2402 2408 2443 
2445 2404 2406 2412 2447 2449 2410 2416 2451 
2453 2413 2414 2415 2420 2455 2457 2417 2418 
2422 2423 2424 2459 2461 2463 2419 2421 2425 
2426 2428 2465 2467 2427 2430 2432 2469 2471 
2434 2436 2473 2475 2441 2437 2438 2440 2477 
2479 2439 2442 2448 2483 2485 2446 2452 2487 
2489 2450 2456 2491 2493 2454 2460 2495 2497 
2458 2462 2464 2499 2501 2503 2466 2468 2505 
2507 2470 2472 2509 2511 2474 2476 2513 2515 
2444 2481 2478 2480 2517 2519 2482 2488 2523 
2525 2486 2492 2527 2529 2490 2496 2531 2533 
2494 2500 2535 2537 2498 2502 2504 2539 2541 
2543 2506 2508 2545 2547 2510 2512 2549 2551 
2514 2516 2553 2555 2484 2521 2518 2520 2557 
2559 2522 2528 2563 2565 2524 2526 2532 2567 
2569 2530 2536 2571 2573 2534 2540 2575 2577 
2179 2538 2542 2544 2579 2581 2583 2546 2548 
2585 2587 2550 2552 2589 2591 2554 2556 2593 
2595 2561 2558 2560 2597 2599 2562 2568 2602 
2603 2605 2608 2564 2566 2572 2606 2607 2609 
2612 2570 2576 2610 2611 2613 2616 2574 2580 
2614 2615 2617 2620 2578 2582 2584 2618 2619 
2621 2622 2623 2624 2586 2588 2625 2626 2627 
2628 2590 2592 2629 2630 2631 2632 2594 2596 
2633 2634 2635 2636 2601 2604 2598 2600 2637 
2638 2639 2640 2641 2642 2643 2645 2648 2646 
2647 2649 2652 2650 2651 2653 2656 2654 2655 
2657 2660 2658 2659 2661 2662 2663 2664 2665 
2666 2667 2668 2669 2670 2671 2672 2673 2674 
2675 2676 2644 2677 2678 2679 2680 2682 2683 
2685 2688 2292 2686 2687 2689 2692 2291 2296 
2690 2691 2693 2696 2694 2695 2697 2700 2698 
2699 2701 2702 2703 2704 2705 2706 2707 2708 
2709 2710 2711 2712 2713 2714 2715 2716 2684 
2681 2717 2718 2719 2720 2721 2722 2723 2725 
2728 2726 2727 2729 2732 2730 2731 2733 2736 
2734 2735 2737 2740 2738 2739 2741 2742 2743 
2744 2745 2746 2747 2748 2749 2750 2751 2752 
2355 2753 2754 2755 2756 2724 2757 2758 2759 
2760 2405 2401 2403 2762 2763 2765 2768 2761 
2407 2409 2766 2767 2769 2772 2411 2770 2771 
2773 2776 2774 2775 2777 2780 2778 2779 2781 
2782 2783 2784 2785 2786 2787 2788 2429 2431 
2789 2790 2791 2792 2433 2435 2793 2794 2795 
2796 2764 2797 2798 2799 2800 2802 2805 2808 
2841 2843 2845 2804 2806 2807 2812 2847 2849 
2810 2811 2813 2816 2851 2853 2814 2820 2855 
2857 2817 2818 2822 2823 2824 2859 2861 2863 
2825 2826 2827 2828 2865 2867 2829 2830 2831 
2832 2869 2871 2834 2836 2873 2875 2833 2835 
2838 2840 2877 2879 2839 2842 2844 2848 2883 
2885 2881 2846 2852 2887 2889 2850 2856 2891 
2893 2854 2860 2895 2897 2858 2862 2864 2899 
2901 2903 2866 2868 2905 2907 2870 2872 2909 
2911 2874 2876 2913 2915 2878 2880 2917 2919 
2882 2888 2921 2923 2925 2884 2886 2892 2927 
2929 2890 2896 2931 2933 2894 2900 2935 2937 
2898 2902 2904 2939 2941 2943 2906 2908 2945 
2947 2910 2912 2949 2951 2914 2916 2953 2955 
2918 2920 2957 2959 2922 2928 2963 2965 2926 
2932 2967 2969 2930 2936 2971 2973 2934 2940 
2975 2977 2938 2942 2944 2979 2981 2983 2946 
2948 2985 2987 2950 2952 2989 2991 2954 2956 
2993 2995 2961 2924 2958 2960 2997 2999 2962 
2968 3001 3002 3003 3005 3008 2966 2972 3006 
3007 3009 3012 2970 2976 3010 3011 3013 3016 
2974 2980 3014 3015 3017 3020 2978 2982 2984 
3018 3019 3021 3022 3023 3024 2986 2988 3025 
3026 3027 3028 2990 2992 3029 3030 3031 3032 
2994 2996 3033 3034 3035 3036 2964 3004 2998 
3000 3037 3038 3039 3040 3042 3043 3045 3048 
3044 3046 3047 3049 3052 3050 3051 3053 3056 
3054 3055 3057 3060 3058 3059 3061 3062 3063 
3064 3065 3066 3067 3068 3069 3070 3071 3072 
3073 3074 3075 3076 3041 3077 3078 3079 3080 
3082 3083 3085 3088 3086 3087 3089 3092 3090 
3091 3093 3096 3094 3095 3097 3100 3098 3099 
3101 3102 3103 3104 3105 3106 3107 3108 3109 
3110 3111 3112 3113 3114 3115 3116 3084 3081 
3117 3118 3119 3120 3122 3123 3125 3128 3124 
3126 3127 3129 3132 3130 3131 3133 3136 3134 
3135 3137 3140 3138 3139 3141 3142 3143 3144 
3145 3146 3147 3148 3149 3150 3151 3152 3153 
3154 3155 3156 3121 3157 3158 3159 3160 2803 
3162 3163 3165 3168 3164 2809 3166 3167 3169 
3172 3170 3171 3173 3176 2815 3174 3175 3177 
3180 2819 2821 3178 3179 3181 3182 3183 3184 
3185 3186 3187 3188 3189 3190 3191 3192 3193 
3194 3195 3196 2801 2837 3161 3197 3198 3199 
3200 3202 3205 3208 3243 3245 3204 3241 3206 
3209 3212 3247 3249 3207 3210 3211 3216 3251 
3253 3213 3214 3220 3255 3257 3218 3222 3223 
3224 3259 3261 3263 3219 3225 3226 3227 3228 
3265 3267 3230 3232 3269 3271 3231 3234 3236 
3273 3275 3233 3237 3238 3240 3277 3279 3242 
3248 3283 3285 3244 3281 3246 3252 3287 3289 
3250 3256 3291 3293 3254 3260 3295 3297 3258 
3262 3264 3299 3301 3303 3266 3268 3305 3307 
3270 3272 3309 3311 3274 3276 3313 3315 3278 
3280 3317 3319 3282 3288 3323 3325 3284 3321 
3286 3292 3327 3329 3290 3296 3331 3333 3294 
3300 3335 3337 3298 3302 3304 3339 3341 3343 
3306 3308 3345 3347 3310 3312 3349 3351 3314 
3316 3353 3355 3318 3320 3357 3359 3322 3328 
3363 3365 3326 3332 3367 3369 3330 3336 3371 
3373 3334 3340 3375 3377 3338 3342 3344 3379 
3381 3383 3346 3348 3385 3387 3386 3350 3352 
3389 3391 3354 3356 3393 3395 3324 3361 3358 
3360 3397 3399 3362 3368 3402 3403 3405 3364 
3404 3408 3366 3372 3406 3407 3409 3412 3370 
3376 3410 3411 3413 3416 3374 3380 3414 3415 
3417 3420 3378 3382 3384 3418 3419 3421 3422 
3423 3424 3388 3425 3426 3427 3428 3390 3392 
3429 3430 3431 3432 3394 3396 3433 3434 3435 
3436 3401 3398 3400 3437 3438 3439 3440 3442 
3443 3445 3448 3446 3447 3449 3452 3450 3451 
3453 3456 3454 3455 3457 3460 3458 3459 3461 
3462 3463 3464 3465 3466 3467 3468 3469 3470 
3471 3472 3473 3474 3475 3476 3441 3444 3477 
3478 3479 3480 3482 3483 3485 3488 3481 3484 
3486 3487 3489 3492 3490 3491 3493 3496 3494 
3495 3497 3500 3498 3499 3501 3502 3503 3504 
3505 3506 3507 3508 3509 3510 3511 3512 3513 
3514 3515 3516 3517 3518 3519 3520 3522 3523 
3525 3528 3526 3527 3529 3532 3530 3531 3533 
3536 3534 3535 3537 3540 3538 3539 3541 3542 
3543 3544 3545 3546 3547 3548 3549 3550 3551 
3552 3553 3554 3555 3556 3521 3524 3557 3558 
3559 3560 3203 3562 3563 3565 3568 3566 3567 
3569 3572 3570 3571 3573 3576 3215 3217 3574 
3575 3577 3580 3221 3578 3579 3581 3582 3583 
3584 3585 3586 3587 3588 3229 3589 3590 3591 
3592 3235 3593 3594 3595 3596 3239 3561 3201 
3564 3597 3598 3599 3600 2 45 5 3602 
3608 3641 3643 3645 41 9 49 6 3606 
3612 3647 3649 3609 10 3610 3616 3651 3653 
13 14 57 3614 3615 3620 3655 3657 22 
61 18 21 3618 3622 3623 3624 3659 3661 
3663 3625 3626 3627 3628 3665 3667 69 3630 
3632 3669 3671 3629 3631 33 34 73 3634 
3636 3673 3675 3633 3604 3638 3640 3677 3679 
3639 3642 3648 3683 3685 3644 3681 46 89 
3646 3652 3687 3689 3650 3656 3691 3693 97 
3654 3660 3695 3697 58 62 101 3658 3662 
3664 3699 3701 3703 66 105 3666 3668 3705 
3707 70 3670 3672 3709 3711 113 3674 3676 
3713 3715 3678 3680 3717 3719 125 3682 3688 
3723 3725 129 3686 3692 3727 3729 133 3690 
3696 3731 3733 3694 3700 3735 3737 141 102 
3698 3702 3704 3739 3741 3743 106 145 3706 
3708 3745 3747 149 3710 3712 3749 3751 153 
3714 3716 3753 3755 121 3684 3721 118 3718 
3720 3757 3759 165 3722 3728 3763 3765 3761 
126 169 3726 3732 3767 3769 3772 3730 3736 
3771 3773 134 177 3734 3740 3775 3777 142 
181 3738 3742 3744 3779 3781 3783 146 3746 
3748 3785 3787 3750 3752 3789 3791 193 3754 
3756 3793 3795 158 3724 3758 3760 3797 3799 
162 201 205 3762 3768 3802 3803 3804 3805 
3808 206 209 3766 3806 3807 3809 3812 210 
213 3770 3776 3810 3811 3813 3816 217 3774 
3780 3815 3817 3820 3814 178 182 218 222 
3778 3782 3784 3818 3819 3821 3822 3823 3824 
225 226 3786 3788 3825 3826 3827 3828 3790 
3792 3829 3830 3831 3832 3794 3796 3833 3834 
3835 3836 198 3764 3801 3798 3800 3837 3838 
3839 3840 242 241 3841 3842 3843 3845 3848 
3844 3846 3847 3849 3852 3850 3851 3853 3856 
257 3854 3855 3857 3860 258 262 3859 261 
3858 3861 3862 3863 3864 266 265 3865 3866 
3867 3868 269 3869 3870 3871 3872 274 3873 
3874 3875 3876 3877 3878 3879 3880 281 282 
3881 3882 3883 3885 3888 3884 286 3886 3887 
3889 3892 290 3890 3891 3893 3896 294 297 
3894 3895 3897 3900 302 301 3898 3899 3901 
3902 3903 3904 3905 3906 3907 3908 309 3909 
3910 3911 3912 3913 3914 3915 3916 318 3917 
3918 3919 3920 325 322 3922 3923 3925 3928 
321 3924 329 3926 3927 3929 3932 330 333 
3930 3931 3933 3936 334 337 3934 3935 3937 
3940 342 3938 3939 3941 3942 3943 3944 3945 
3946 3947 3948 350 3949 3950 3951 3952 353 
3953 3954 3955 3956 357 358 3921 3957 3958 
3959 3960 3603 3605 3962 3963 3965 3968 3961 
366 369 3607 3966 3967 3969 3972 3613 3611 
3970 3971 3973 3976 17 374 3617 377 3974 
3975 3977 3980 378 3621 3619 3978 3979 3981 
3982 3983 3984 385 386 3985 3986 3987 3988 
389 390 29 3989 3990 3991 3992 393 394 
3635 3993 3994 3995 3996 398 3964 3601 3637 
3997 3998 3999 4000 
type 1 4000 int
1 1 1 1 1 1 1 1 1 
1 1 1 1 1 1 1 1 1 
1 1 1 1 1 1 1 1 1 
1 1 1 1 1 1 1 1 1 
1 1 1 1 1 1 1 1 1 
1 1 1 1 1 1 1 1 1 
1 1 1 1 1 1 1 1 1 
1 1 1 1 1 1 1 1 1 
1 1 1 1 1 1 1 1 1 
1 1 1 1 1 1 1 1 1 
1 1 1 1 1 1 1 1 1 
1 1 1 1 1 1 1 1 1 
1 1 1 1 1 1 1 1 1 
1 1 1 1 1 1 1 1 1 
1 1 1 1 1 1 1 1 1 
1 1 1 1 1 1 1 1 1 
1 1 1 1 1 1 1 1 1 
1 1 1 1 1 1 1 1 1 
1 1 1 1 1 1 1 1 1 
1 1 1 1 1 1 1 1 1 
1 1 1 1 1 1 1 1 1 
1 1 1 1 1 1 1 1 1 
1 1 1 1 1 1 1 1 1 
1 1 1 1 1 1 1 1 1 
1 1 1 1 1 1 1 1 1 
1 1 1 1 1 1 1 1 1 
1 1 1 1 1 1 1 1 1 
1 1 1 1 1 1 1 1 1 
1 1 1 1 1 1 1 1 1 
1 1 1 1 1 1 1 1 1 
1 1 1 1 1 1 1 1 1 