# vtk DataFile Version 4.0
Generated by LAMMPS
ASCII
DATASET POLYDATA
POINTS 4000 float
0.470832 1.61258 1.78184 4.50715 1.55306 1.84678 2.35436 3.70977 1.97157 
2.40067 1.66871 3.86586 4.40398 3.77189 3.74284 0.344017 3.68666 3.74768 
2.47308 -0.411958 1.69545 2.4643 1.55087 -0.222354 8.36989 1.72236 1.94892 
6.52589 3.67921 1.67394 6.48901 1.64252 4.03701 8.36474 3.7658 3.79486 
6.50485 -0.411009 1.82767 8.42135 -0.420416 4.02257 8.71289 3.71931 -0.238882 
12.1587 1.61163 1.87498 10.4158 3.72001 1.85094 10.298 1.73455 3.85378 
12.3395 3.64521 3.88878 10.2098 -0.425568 1.84556 12.2991 -0.506548 3.73641 
10.3568 1.54242 -0.328072 16.2283 1.59646 1.69175 14.2554 3.62697 1.87998 
14.221 1.6037 3.70024 16.339 3.68798 3.83519 14.2677 1.56606 -0.391303 
20.072 1.74769 1.81442 18.2792 3.78394 1.82044 22.0849 3.75383 1.73096 
18.332 1.75084 3.94117 21.9802 2.03747 3.89697 20.0921 3.83162 3.88348 
22.1248 -0.333928 1.66737 20.308 -0.388581 3.8567 18.179 -0.3137 1.85846 
24.1691 1.87663 1.61424 24.1219 3.93941 -0.146635 26.0949 3.80777 1.77998 
26.0226 1.67073 3.76881 24.1844 3.82877 3.79632 23.9908 -0.124448 3.83128 
26.1258 -0.356782 1.86635 28.1409 1.84788 1.70549 30.12 3.91661 1.79959 
30.1595 1.6904 3.86683 28.0589 3.78048 3.81832 28.1639 -0.102691 3.83149 
30.0211 -0.324447 1.71583 28.1307 4.0103 -0.251264 28.0459 -0.315346 -0.395384 
32.0089 1.7984 1.82909 34.0645 3.76466 1.74542 34.0513 1.59135 3.75713 
32.1741 3.68273 3.7798 33.9976 1.56204 -0.238935 38.259 1.55682 -0.366476 
36.027 1.54824 1.71321 37.8604 3.68223 1.7903 37.8102 1.71287 3.84483 
36.0622 3.7256 3.87081 36.141 3.75558 -0.304965 39.9239 -0.312855 3.95001 
36.1168 -0.401422 3.93341 39.9011 3.76798 -0.279944 4.51132 5.80627 1.65093 
2.34991 7.80646 1.87607 2.4373 5.80679 3.77814 0.423152 7.87978 3.89916 
4.33041 7.76882 3.86612 0.253904 5.78307 1.78093 8.26597 5.76291 1.86962 
6.22823 7.92552 1.8264 6.35088 5.86865 3.78646 8.38899 7.82773 3.85748 
12.1991 5.83254 1.92701 10.4183 7.8319 1.84659 10.2928 5.78764 3.83189 
12.2664 7.76384 3.93513 16.0786 5.56693 1.85548 14.0594 7.88651 1.79458 
14.3025 5.50018 3.83803 16.1652 7.79435 3.77284 20.1199 5.84745 1.77451 
18.2166 7.86232 1.6712 22.2227 7.71604 1.60901 18.1637 5.79056 3.6864 
22.0896 5.77654 3.8386 20.1599 7.83508 3.76082 24.1884 5.84934 1.72636 
26.2354 8.02905 1.82028 26.1101 5.90035 3.82695 24.1515 7.80795 3.87274 
26.1711 5.97151 -0.2462 28.1868 5.95659 1.89033 28.411 7.85632 -0.191094 
30.1578 7.83467 1.83004 30.2501 5.72919 3.87228 28.1017 7.82042 3.84442 
34.111 5.88018 -0.171474 32.218 5.80595 1.89696 34.1772 8.0257 1.78028 
34.0131 5.73666 3.85933 32.1643 7.84191 3.85506 40.1358 7.9918 -0.370543 
38.0181 5.99218 -0.288951 36.1949 5.79858 1.78029 36.0084 8.14439 -0.465501 
38.046 7.98925 1.6929 37.909 5.84086 3.93424 35.9524 7.88961 3.68325 
2.53905 10.0497 -0.27728 4.40556 9.93932 1.90669 2.57425 11.9963 1.78145 
2.45589 10.0369 3.8324 4.4583 12.1119 3.7832 0.601689 10.0581 1.74914 
0.724284 11.9644 3.84411 0.66038 12.1456 -0.362285 8.36576 9.96913 1.81372 
6.47177 11.8797 1.6517 6.37193 9.95054 3.83477 8.38178 11.9443 3.76223 
8.32999 11.9158 -0.27954 10.224 10.0097 -0.29159 12.1967 9.83233 1.618 
10.2667 11.9385 1.7781 10.336 9.75173 3.81881 12.1275 11.9 3.71554 
12.2982 11.9409 -0.383585 16.2218 9.87227 1.63269 14.1302 11.9645 1.6712 
16.309 12.0812 -0.298358 14.0935 9.81715 3.72601 16.153 11.9246 3.64298 
20.243 9.77581 1.76537 18.1488 11.911 1.7592 22.1718 12.0219 1.84565 
18.1718 9.71728 3.6739 22.3622 9.9712 3.69507 20.0782 12.0808 3.68579 
22.1312 10.0151 -0.16274 24.1729 9.84515 1.7126 26.1146 12.087 1.80294 
26.1457 9.89789 3.86735 24.2819 12.1368 3.77652 24.0914 11.9851 -0.244621 
30.0417 10.0884 -0.375028 28.1271 10.0278 1.73731 29.9915 12.0407 1.7314 
30.0613 9.92809 3.64373 28.0493 11.9388 3.9067 32.1126 9.91993 1.79842 
34.1335 12.0616 1.64435 34.1532 10.0149 3.86269 32.0496 12.0198 3.788 
33.8573 10.0196 -0.383399 36.0723 10.0614 1.73933 37.9386 12.2638 1.77597 
37.8978 9.99335 3.83155 35.9826 12.0556 3.85214 36.0191 12.0551 -0.427451 
38.1166 10.0368 -0.315295 2.62978 13.9264 -0.441934 4.4715 13.9312 1.57956 
2.46008 15.9981 1.62217 2.3835 14.1745 3.78321 4.40791 16.103 3.69602 
0.608627 14.0257 1.68475 8.27717 14.0646 1.78327 6.39442 16.1106 2.06848 
6.59534 14.1065 3.87506 8.57028 16.1863 3.76537 6.50181 14.0205 -0.351355 
10.4388 14.1015 -0.179479 12.2104 14.1414 1.67336 10.3336 16.4625 1.6347 
12.3754 16.2745 -0.277057 10.4063 14.097 3.66495 12.3784 16.209 3.71663 
10.2762 18.2705 -0.370757 16.152 14.0319 1.75544 14.3077 16.3297 1.79229 
14.201 14.0415 3.6517 16.3448 16.0352 3.90305 14.2139 14.2022 -0.235071 
16.2803 16.226 -0.345674 20.2925 14.1514 1.73134 18.1366 16.182 1.82314 
22.3193 16.0069 1.88878 18.1011 13.9105 3.75255 22.2733 14.0691 3.96064 
20.2037 16.3218 3.87051 24.138 14.1136 1.87016 26.1693 16.0175 1.70231 
26.3174 14.1225 3.7622 24.2668 16.1719 3.90895 29.9469 13.9113 -0.494558 
28.2105 14.1158 1.74764 28.1873 16.0483 -0.36053 30.3567 16.1023 1.793 
30.1915 14.02 3.79009 28.4143 16.2811 3.7051 30.1481 18.128 -0.158293 
32.0706 13.9923 1.64991 33.9691 16.1432 1.54269 34.0567 14.203 3.9608 
32.1442 16.1715 3.76256 33.9717 13.9326 -0.322816 32.0412 16.1421 -0.399623 
39.9304 16.1301 -0.378889 39.9052 16.144 3.7612 35.9026 14.2668 1.82101 
38.1841 16.0511 1.5701 37.993 14.2256 3.87869 36.0538 16.2635 3.70303 
36.0227 16.0715 -0.373515 38.1329 14.0499 -0.34214 4.39035 18.2497 1.67746 
2.47722 20.3928 1.62881 4.40535 22.3253 1.48503 2.44211 18.0599 3.71994 
0.476655 20.3589 3.64899 2.46548 22.3744 3.63937 4.30243 19.9399 3.71457 
0.560512 22.3693 1.56151 4.53203 20.253 -0.44015 8.3372 18.2358 1.77687 
6.34416 20.3181 1.73427 8.3772 22.3688 1.66036 6.41131 18.2316 3.92346 
6.32289 22.3067 3.72761 8.29095 20.1917 3.80561 6.29952 18.088 -0.306384 
6.70246 22.2827 -0.426442 8.46028 20.2213 -0.491644 12.3182 18.3574 1.82634 
10.4851 20.3559 1.78186 12.4787 22.3246 1.85886 10.2326 18.2577 3.83431 
10.4027 22.2769 3.71602 12.3981 20.1816 3.71762 10.4526 22.3755 -0.223287 
12.5257 20.4579 -0.305464 14.3253 18.3489 -0.202245 16.3368 18.1921 1.70453 
14.497 20.346 1.89405 16.3622 22.4039 1.77734 14.5229 18.1957 3.75543 
14.4471 22.1314 3.81974 16.3765 20.1515 3.74083 16.3507 20.4258 -0.278011 
20.2606 18.1754 1.80839 18.3731 20.1234 1.73334 22.2881 20.2277 1.77923 
20.2352 22.3362 1.87938 18.1928 18.0994 3.96816 22.2753 18.2346 3.87638 
18.2996 22.1826 3.87996 20.3201 20.0942 3.76837 22.3805 22.2173 3.75645 
18.3398 22.2676 -0.268461 22.3659 22.2591 -0.0601876 24.241 18.2053 1.76323 
26.2773 20.058 1.79262 24.2868 22.279 1.77867 26.3082 17.8987 3.87795 
24.2837 20.3256 3.82724 26.1787 22.2543 3.74068 26.202 18.0048 -0.292139 
24.2229 20.0136 -0.187291 28.2178 18.0785 1.55104 30.2031 22.3529 -0.222422 
30.1154 20.3392 1.49257 28.0284 22.394 1.75407 30.3061 18.2641 3.65964 
28.1276 20.3424 3.66671 30.1946 22.3192 3.51679 28.1854 20.1046 -0.535805 
34.0234 18.1414 -0.409954 32.2018 18.2415 1.61407 33.9164 20.3424 1.66686 
32.1792 22.2812 1.75766 34.061 18.1846 3.79237 32.1529 20.3431 3.67707 
34.0991 22.384 3.58115 32.2247 20.2719 -0.371015 34.1653 22.2765 -0.453313 
39.9141 18.2318 1.54871 35.9749 18.1035 1.55658 38.0857 22.3757 -0.468427 
37.8992 20.3048 1.55036 36.002 22.4001 1.50483 38.0357 18.3013 3.47952 
36.0023 20.0879 3.57212 37.8661 22.225 3.64036 35.8211 20.1814 -0.468925 
39.8185 20.2479 -0.323989 37.9747 18.1533 -0.355513 2.40777 24.4447 1.67969 
0.52793 26.7697 1.56006 4.51536 26.3044 1.71502 2.64375 26.526 3.57884 
4.60407 24.2109 3.74678 4.51255 24.3615 -0.304796 2.50249 26.4112 -0.272176 
6.56833 24.4183 1.68992 8.3359 26.5943 1.63571 6.51661 26.4712 3.80001 
8.46817 24.3413 3.76576 6.40039 26.3663 -0.484376 10.4502 26.4744 -0.281719 
10.4909 24.6986 1.70701 12.3897 26.559 1.82164 10.2607 26.4532 3.74147 
12.2823 24.2781 3.77782 12.3897 24.3962 -0.288915 14.2737 26.4671 -0.349031 
14.3565 24.5175 1.83475 16.3057 26.358 1.78427 14.346 26.3408 4.01479 
16.3906 24.2907 3.92407 16.3624 24.3604 -0.250169 18.3371 24.258 1.87854 
22.2547 24.3002 1.91695 20.4166 26.2676 2.02026 18.2008 26.439 4.01756 
20.0875 24.3481 3.89247 22.2654 26.5233 4.02799 18.4523 26.2676 -0.253367 
22.2091 26.3873 -0.13469 26.2864 24.4114 1.76963 24.1789 26.3634 1.79331 
24.1773 24.3996 3.90704 26.1458 26.3767 3.85343 26.2722 26.4331 -0.409004 
24.2591 24.274 -0.278933 30.1737 24.4932 1.7656 28.119 26.5204 1.64468 
28.4288 24.5042 3.75115 30.2704 26.603 3.88887 30.1486 26.3164 -0.328806 
28.1227 24.3786 -0.304572 34.1314 24.4318 1.57576 32.0005 26.5246 1.63376 
32.26 24.419 3.66095 34.021 26.6081 3.60617 40.0077 24.3304 3.76554 
38.2148 24.4937 1.58074 36.0769 26.4097 1.72737 35.991 24.4829 3.7343 
37.9437 26.3479 3.66488 2.66026 28.5067 1.78413 0.43735 30.5413 1.69902 
4.4209 30.6885 1.60863 2.56655 30.3918 3.8423 4.50122 28.6298 3.82176 
0.432989 28.4725 3.79624 6.4102 28.4709 1.67529 8.48531 30.5083 1.72008 
6.60767 30.5081 3.65201 8.36957 28.5497 3.86084 10.2818 28.6196 1.79788 
12.4645 30.5861 1.76364 10.3693 30.6102 3.90715 12.4538 28.566 3.78666 
10.3353 30.5555 -0.346557 14.3945 28.4894 1.82753 16.2415 30.503 1.65508 
14.4836 30.5785 3.89347 16.3247 28.3214 3.75571 14.3618 30.5385 -0.240271 
16.4517 28.4235 -0.209723 18.3449 28.2729 1.77529 22.2272 28.4264 1.78335 
20.3473 30.4248 1.82001 18.3951 30.425 3.86914 20.3668 28.4697 3.92663 
22.495 30.6056 4.00111 22.2218 30.4836 -0.270388 26.2026 28.4878 1.61283 
24.1875 30.6069 1.83655 24.1304 28.35 3.74845 26.0759 30.5194 3.8011 
26.0635 30.3899 -0.211598 30.0838 30.548 -0.353191 30.0082 28.6178 1.65447 
28.1494 30.5882 1.74592 28.0326 28.4281 3.77155 30.1138 30.5089 3.6908 
28.2487 28.5865 -0.280914 32.1241 28.5138 -0.482532 33.9876 30.5991 -0.460348 
33.9862 28.5976 1.58852 31.9293 30.5332 1.59359 32.1363 28.6314 3.56419 
34.1283 30.6172 3.66874 37.8301 28.3849 1.79332 36.0041 30.5853 1.56081 
35.9638 28.5437 3.68813 37.9684 30.482 3.63255 39.9439 28.7069 -0.316781 
[...]
POINT_DATA 4000
FIELD FieldData 6
id 1 4000 int
4 8 43 402 445 441 3 2 12 
47 406 449 7 409 49 16 51 410 
453 11 413 10 20 55 414 457 14 
24 59 63 418 422 461 23 421 19 
28 65 67 426 465 425 27 32 71 
430 469 429 31 69 29 36 75 434 
473 34 38 40 79 438 477 77 401 
437 41 48 83 442 481 485 44 52 
87 446 489 56 91 450 493 60 95 
454 497 64 99 103 458 462 501 68 
107 466 505 66 72 109 111 470 509 
74 76 115 474 513 81 78 80 117 
119 478 517 82 88 123 482 525 84 
521 121 92 127 486 529 129 90 96 
131 490 533 133 100 135 137 494 537 
104 139 143 498 502 541 102 108 147 
506 545 145 110 112 151 510 549 116 
155 514 553 114 120 159 518 557 157 
118 122 128 163 522 565 124 132 167 
526 569 126 130 136 171 173 530 573 
170 140 175 534 577 134 177 144 179 
183 538 542 581 148 187 546 585 150 
152 189 191 550 589 190 156 195 554 
593 154 193 161 561 160 199 558 597 
197 158 168 203 208 562 601 602 605 
204 205 172 207 212 566 606 609 166 
206 209 176 211 216 570 610 613 210 
213 174 180 215 220 574 614 617 217 
184 219 223 224 578 582 618 621 622 
218 222 188 227 228 586 625 626 186 
225 192 230 231 232 590 629 630 229 
194 196 235 236 594 633 634 233 234 
164 200 238 239 240 598 637 638 237 
201 198 243 244 248 642 645 245 242 
247 252 646 649 246 250 251 256 650 
653 253 254 255 260 654 657 257 259 
263 264 658 661 662 258 262 267 268 
665 666 266 265 271 272 669 670 270 
269 275 276 673 674 641 279 280 677 
678 283 284 288 682 685 681 287 292 
686 689 291 296 690 693 290 295 300 
694 697 294 297 299 303 304 698 701 
702 302 307 308 705 706 306 310 311 
312 709 710 309 313 314 315 316 713 
714 319 320 717 718 281 318 323 328 
722 725 322 321 327 332 726 729 329 
331 336 730 733 330 333 335 340 734 
737 339 343 344 738 741 742 338 342 
347 348 745 746 351 352 749 750 350 
355 356 753 754 354 353 324 721 359 
360 757 758 357 358 405 361 363 368 
762 765 362 364 1 367 372 766 769 
369 371 376 770 773 370 417 15 375 
380 774 777 374 379 383 384 778 781 
782 378 387 388 785 786 391 392 789 
790 389 35 433 395 396 793 794 393 
394 39 761 399 400 797 798 37 397 
398 404 408 443 802 845 407 412 447 
806 849 411 416 451 810 813 853 420 
455 814 857 415 424 459 463 818 821 
822 861 428 467 825 826 865 427 432 
471 830 869 436 475 834 873 841 440 
479 837 838 877 439 801 448 483 842 
885 881 452 487 846 889 456 491 850 
893 460 495 854 897 464 499 503 858 
862 901 468 507 866 905 472 511 870 
909 476 515 874 913 444 480 519 878 
917 488 523 882 925 484 921 492 527 
886 929 496 531 890 933 500 535 894 
937 504 539 543 898 902 941 508 547 
906 945 512 551 910 949 516 555 914 
953 520 559 918 957 528 563 922 965 
532 567 926 969 536 571 930 973 540 
575 934 977 544 579 583 938 942 981 
548 587 946 985 552 591 950 989 556 
595 954 993 524 961 560 599 958 997 
568 603 608 962 1005 604 1001 1002 572 
607 612 966 1006 1009 576 611 616 970 
1010 1013 580 615 620 974 1014 1017 584 
619 623 624 978 982 1018 1021 1022 588 
627 628 986 1025 1026 592 631 632 990 
1029 1030 596 635 636 994 1033 1034 564 
600 639 640 998 1037 1038 643 648 1042 
1045 647 652 1046 1049 651 656 1050 1053 
655 660 1054 1057 659 663 664 1058 1061 
1062 667 668 1065 1066 671 672 1069 1070 
675 676 1073 1074 644 1041 679 680 1077 
1078 683 688 1082 1085 1081 687 692 1086 
1089 691 696 1090 1093 695 700 1094 1097 
699 703 704 1098 1101 1102 707 708 1105 
1106 711 712 1109 1110 715 716 1113 1114 
684 719 720 1117 1118 723 728 1122 1125 
727 732 1126 1129 731 736 1130 1133 735 
740 1134 1137 739 743 744 1138 1141 1142 
747 748 1145 1146 751 752 1149 1150 755 
756 1153 1154 724 1121 759 760 1157 1158 
403 805 763 768 1162 1165 809 767 772 
1166 1169 771 776 1170 1173 817 775 780 
1174 1177 419 423 779 783 784 1178 1181 
1182 787 788 1185 1186 829 431 791 792 
1189 1190 435 833 795 796 1193 1194 1161 
764 799 800 1197 1198 808 843 1202 1241 
1245 804 807 812 847 1206 1209 1249 816 
851 1210 1253 811 820 855 1214 1257 824 
859 863 1218 1222 1261 1221 819 827 828 
867 1225 1226 1265 832 871 1230 1269 831 
1229 836 875 1234 1273 840 879 1238 1277 
839 844 848 883 1242 1285 852 887 1246 
1289 856 891 1250 1293 860 895 1254 1297 
864 899 903 1258 1262 1301 868 907 1266 
1305 872 911 1270 1309 876 915 1274 1313 
1281 880 919 1278 1317 888 923 1282 1325 
1321 884 892 927 1286 1329 896 931 1290 
1333 900 935 1294 1337 904 939 943 1298 
1302 1341 908 947 1306 1345 912 951 1310 
1349 916 955 1314 1353 920 959 1318 1357 
928 963 1322 1365 932 967 1326 1369 936 
971 1330 1373 940 975 1334 1377 1338 944 
979 983 1342 1381 948 987 1346 1385 952 
991 1350 1389 956 995 1354 1393 924 1361 
960 999 1358 1397 968 1003 1008 1362 1402 
1405 1401 972 1007 1012 1366 1409 1406 976 
1011 1016 1370 1410 1413 980 1015 1020 1374 
1414 1417 984 1019 1023 1024 1378 1382 1418 
1421 1422 988 1027 1028 1386 1425 1426 992 
1031 1032 1390 1429 1430 996 1035 1036 1394 
1433 1434 1004 964 1000 1039 1040 1398 1437 
1438 1043 1048 1442 1445 1441 1047 1052 1446 
1449 1051 1056 1450 1453 1055 1060 1454 1457 
1059 1063 1064 1458 1461 1462 1067 1068 1465 
1466 1071 1072 1469 1470 1075 1076 1473 1474 
1044 1079 1080 1477 1478 1083 1088 1482 1485 
1087 1092 1486 1489 1091 1096 1490 1493 1095 
1100 1494 1497 1099 1103 1104 1498 1501 1502 
1107 1108 1505 1506 1111 1112 1509 1510 1115 
1116 1513 1514 1481 1084 1119 1120 1517 1518 
1123 1124 1128 1522 1525 1521 1127 1132 1526 
1529 1131 1136 1530 1533 1135 1140 1534 1537 
1139 1143 1144 1538 1541 1542 1147 1148 1545 
1546 1151 1152 1549 1550 1155 1156 1553 1554 
1159 1160 1557 1558 1201 803 1205 1163 1168 
1562 1565 1167 1172 1566 1569 1213 1171 1176 
1570 1573 815 1217 1175 1180 1574 1577 823 
1179 1183 1184 1578 1581 1582 1187 1188 1585 
1586 1191 1192 1589 1590 835 1233 1195 1196 
1593 1594 1237 1561 1164 1199 1200 1597 1598 
1208 1243 1602 1605 1645 1641 1204 1601 1212 
1247 1606 1649 1216 1251 1610 1653 1220 1255 
1614 1657 1215 1224 1259 1263 1618 1622 1661 
1621 1228 1267 1626 1665 1232 1271 1630 1669 
1236 1275 1634 1673 1240 1279 1638 1677 1239 
1637 1640 1244 1248 1283 1642 1685 1681 1252 
1287 1646 1689 1256 1291 1650 1693 1260 1295 
1654 1697 1299 1264 1303 1658 1662 1701 1268 
1307 1666 1705 1272 1311 1670 1709 1276 1315 
1674 1713 1280 1319 1678 1717 1288 1323 1682 
1725 1284 1721 1292 1327 1686 1729 1296 1331 
1690 1733 1300 1335 1694 1737 1304 1339 1343 
1698 1702 1741 1308 1347 1706 1745 1312 1351 
1710 1749 1316 1355 1714 1753 1320 1359 1718 
1757 1328 1363 1722 1765 1332 1367 1726 1769 
1336 1371 1730 1773 1340 1375 1734 1777 1738 
1344 1379 1383 1742 1781 1348 1387 1746 1785 
1352 1391 1750 1789 1356 1395 1754 1793 1761 
1324 1360 1399 1758 1797 1368 1403 1404 1408 
1762 1802 1805 1372 1407 1412 1766 1806 1809 
1376 1411 1416 1770 1810 1813 1380 1415 1420 
1774 1814 1817 1384 1419 1423 1424 1778 1782 
1818 1821 1822 1388 1427 1428 1786 1825 1826 
1392 1431 1432 1790 1829 1830 1396 1435 1436 
1794 1833 1834 1364 1801 1400 1439 1440 1798 
1837 1838 1443 1448 1842 1845 1444 1447 1452 
1846 1849 1451 1456 1850 1853 1455 1460 1854 
1857 1459 1463 1464 1858 1861 1862 1467 1468 
1865 1866 1471 1472 1869 1870 1475 1476 1873 
1874 1841 1479 1480 1877 1878 1483 1484 1488 
1882 1885 1487 1492 1886 1889 1491 1496 1890 
1893 1495 1500 1894 1897 1499 1503 1504 1898 
1901 1902 1507 1508 1905 1906 1511 1512 1909 
1910 1515 1516 1913 1914 1881 1519 1520 1917 
1918 1523 1528 1922 1925 1527 1532 1926 1929 
1932 1531 1536 1930 1933 1535 1540 1934 1937 
1940 1539 1543 1544 1938 1941 1942 1939 1547 
1548 1945 1946 1551 1552 1949 1950 1555 1556 
1953 1954 1921 1524 1559 1560 1957 1958 1203 
1563 1564 1568 1962 1965 1609 1207 1567 1572 
1966 1969 1211 1613 1571 1576 1970 1973 1617 
1575 1580 1974 1977 1219 1223 1579 1584 1978 
1981 1982 1625 1583 1227 1587 1588 1985 1986 
1231 1629 1591 1592 1989 1990 1235 1633 1595 
1596 1993 1994 1961 1599 1600 1997 1998 1608 
1643 2001 2002 2004 2008 2043 2045 2041 1604 
2005 1612 1647 2006 2012 2047 2049 1616 1651 
2010 2016 2051 2053 1611 1620 1655 2014 2020 
2055 2057 1624 1659 1663 2018 2022 2023 2024 
2059 2061 2063 2021 1623 1619 1628 1667 2025 
2026 2028 2065 2067 1632 1671 2030 2032 2069 
2071 1636 1675 2034 2036 2073 2075 1679 2037 
2038 2039 2040 2077 2079 1639 1648 1683 2042 
2048 2081 2083 2085 2044 1644 1652 1687 2046 
2052 2087 2089 1656 1691 2050 2056 2091 2093 
1660 1695 2054 2060 2095 2097 1699 2058 1664 
1703 2062 2064 2099 2101 2103 1668 1707 2066 
2068 2105 2107 1672 1711 2070 2072 2109 2111 
1676 1715 2074 2076 2113 2115 1680 1719 2078 
2080 2117 2119 1688 1723 2082 2084 2088 2123 
2125 1692 1727 2086 2092 2127 2129 1696 1731 
2090 2096 2131 2133 1700 1735 2094 2100 2135 
2137 1704 1739 1743 2098 2102 2104 2139 2141 
2143 1708 1747 2106 2108 2145 2147 1712 1751 
2110 2112 2149 2151 1716 1755 2114 2116 2153 
2155 2121 1684 1720 1759 2118 2120 2157 2159 
1728 1763 2122 2128 2163 2165 2161 2124 1732 
1767 2126 2132 2167 2169 1736 1771 2130 2136 
2171 2173 1740 1775 2134 2140 2175 2177 1783 
1744 1779 2138 2142 2144 2181 2183 2179 1748 
1787 2146 2148 2185 2187 1752 1791 2150 2152 
2189 2191 1756 1795 2154 2156 2193 2195 1724 
1760 1799 2158 2160 2197 2199 1764 1768 1803 
1808 2162 2168 2202 2203 2205 2208 2204 2201 
1772 1807 1812 2166 2172 2206 2209 2212 2207 
1776 1811 1816 2170 2176 2210 2211 2213 2216 
1780 1815 1820 2174 2180 2214 2215 2217 2220 
1784 1819 1823 1824 2178 2182 2184 2218 2219 
2221 2223 2224 2222 1788 1827 1828 2186 2188 
2225 2226 2227 2228 1792 1831 1832 2190 2192 
2229 2230 2231 2232 1796 1835 1836 2194 2196 
2233 2234 2235 1804 2164 1800 1839 1840 2198 
2200 2237 2238 2239 2240 1843 1848 2242 2243 
2245 2248 2241 1847 1852 2246 2247 2249 2252 
1851 1856 2250 2251 2253 2256 1855 1860 2254 
2255 2257 2260 1859 1863 1864 2258 2259 2261 
2262 2264 1867 1868 2265 2266 2267 2268 1871 
1872 2269 2270 2271 2272 2236 1875 1876 2273 
2274 2275 2276 2244 1844 1879 1880 2277 2278 
2279 2280 1883 1888 2282 2283 2285 2288 2281 
1887 1892 2286 2287 2289 2292 1891 1896 2290 
2293 2291 2296 1895 1900 2294 2295 2297 2300 
1899 1903 1904 2298 2299 2301 2302 2303 2304 
1907 1908 2305 2306 2308 2307 1911 1912 2309 
2310 2311 2312 1915 1916 2313 2314 2315 2316 
1884 2284 1919 1920 2317 2318 2319 2320 1923 
1928 2322 2323 2325 2328 1924 1927 2326 2327 
2329 2332 1931 1936 2330 2331 2333 2336 1935 
2334 2335 2337 2340 1943 1944 2338 2339 2341 
2342 2343 2344 1947 1948 2345 2346 2347 2348 
1951 1952 2349 2350 2351 2352 1955 1956 2353 
2354 2356 2355 2321 2324 1959 1960 2357 2358 
2359 2360 1603 2003 1963 1964 1968 2362 2363 
2365 2368 2361 2009 1607 1967 1972 2366 2367 
2369 2372 2011 2013 1971 1976 2370 2371 2373 
2376 1615 2015 2017 1975 1980 2374 2375 2377 
2380 2019 1979 1983 1984 2378 2379 2381 2382 
2383 2384 2027 1627 1987 1988 2385 2386 2387 
2388 2029 2031 1631 1991 1992 2389 2390 2391 
2392 1635 2033 2035 1995 1996 2393 2394 2395 
2364 1999 2000 2397 2398 2399 2400 2402 2408 
2443 2445 2441 2405 2406 2412 2447 2449 2409 
2410 2416 2451 2453 2411 2414 2415 2420 2455 
2457 2418 2422 2423 2424 2459 2461 2463 2419 
2426 2428 2465 2467 2427 2430 2432 2469 2471 
2434 2436 2473 2475 2433 2404 2438 2440 2477 
2479 2439 2442 2448 2483 2485 2444 2481 2446 
2452 2487 2489 2450 2456 2491 2493 2454 2460 
2495 2497 2458 2462 2464 2499 2501 2503 2466 
2468 2505 2507 2470 2472 2509 2511 2474 2476 
2513 2515 2478 2480 2517 2519 2482 2488 2523 
2525 2521 2486 2492 2527 2529 2490 2496 2531 
2533 2494 2500 2535 2537 2498 2502 2504 2539 
2541 2543 2506 2508 2545 2547 2510 2512 2549 
2551 2514 2516 2553 2555 2484 2518 2520 2557 
2559 2522 2528 2563 2565 2561 2526 2532 2567 
2569 2530 2536 2571 2573 2534 2540 2575 2577 
2538 2542 2544 2579 2581 2583 2546 2548 2585 
2587 2550 2552 2589 2591 2554 2556 2593 2595 
2524 2558 2560 2597 2599 2562 2568 2602 2603 
2605 2608 2601 2604 2566 2572 2606 2607 2609 
2612 2570 2576 2610 2611 2613 2616 2574 2580 
2614 2615 2617 2620 2578 2582 2584 2618 2619 
2621 2622 2623 2624 2586 2588 2625 2626 2627 
2628 2590 2592 2629 2630 2631 2632 2594 2596 
2633 2634 2635 2636 2564 2598 2600 2637 2638 
2639 2640 2642 2643 2645 2648 2646 2647 2649 
2652 2650 2651 2653 2656 2654 2655 2657 2660 
2263 2658 2659 2661 2662 2663 2664 2665 2666 
2667 2668 2669 2670 2671 2672 2673 2674 2675 
2676 2641 2644 2677 2678 2679 2680 2682 2683 
2685 2688 2684 2686 2687 2689 2692 2690 2691 
2693 2696 2694 2695 2697 2700 2698 2699 2701 
2702 2703 2704 2705 2706 2707 2708 2709 2710 
2711 2712 2713 2714 2715 2716 2681 2717 2718 
2719 2720 2722 2723 2725 2728 2724 2726 2727 
2729 2732 2730 2731 2733 2736 2734 2735 2737 
2740 2738 2739 2741 2742 2743 2744 2745 2746 
2747 2748 2749 2750 2751 2752 2753 2754 2755 
2756 2721 2757 2758 2759 2760 2403 2762 2763 
2765 2768 2007 2407 2766 2767 2769 2772 2413 
2770 2771 2773 2776 2417 2774 2775 2777 2780 
2421 2778 2779 2781 2782 2783 2784 2425 2785 
2786 2787 2788 2429 2431 2789 2790 2791 2792 
2396 2435 2793 2794 2795 2796 2437 2401 2761 
2764 2797 2798 2799 2800 2802 2808 2841 2843 
2845 2803 2806 2812 2847 2849 2810 2816 2851 
2853 2814 2820 2855 2857 2818 2822 2823 2824 
2859 2861 2863 2819 2825 2826 2827 2828 2865 
2867 2830 2831 2832 2869 2871 2834 2836 2873 
2875 2833 2835 2804 2838 2840 2877 2879 2839 
2842 2848 2883 2885 2846 2852 2887 2889 2850 
2856 2891 2893 2854 2860 2895 2897 2858 2862 
2864 2899 2901 2903 2866 2868 2905 2907 2870 
2872 2909 2911 2874 2876 2913 2915 2844 2881 
2878 2880 2917 2919 2882 2888 2921 2923 2925 
2886 2892 2927 2929 2890 2896 2931 2933 2894 
2900 2935 2937 2898 2902 2904 2939 2941 2943 
2906 2908 2945 2947 2910 2912 2949 2951 2914 
2916 2953 2955 2884 2918 2920 2957 2959 2922 
2928 2963 2965 2961 2924 2926 2932 2967 2969 
2930 2936 2971 2973 2934 2940 2975 2977 2938 
2942 2944 2979 2981 2983 2946 2948 2985 2987 
2950 2952 2989 2991 2954 2956 2993 2995 2958 
2960 2997 2999 2962 2968 3002 3003 3005 3008 
2964 3004 2966 2972 3006 3007 3009 3012 2970 
2976 3010 3011 3013 3016 2974 2980 3015 3017 
3020 2978 2982 2984 3018 3019 3021 3022 3023 
3024 2986 2988 3025 3027 3028 2990 2992 3029 
3030 3031 3032 2994 2996 3033 3034 3035 3036 
3001 2998 3000 3037 3038 3039 3040 3042 3043 
3045 3048 3041 3046 3047 3049 3052 3050 3051 
3053 3056 3014 3054 3055 3057 3060 3058 3059 
3061 3062 3063 3064 3026 3065 3066 3067 3068 
3069 3070 3071 3072 3073 3074 3075 3076 3044 
3077 3078 3079 3080 3082 3083 3085 3088 3084 
3086 3087 3089 3092 3090 3091 3093 3096 3094 
3095 3097 3100 3098 3099 3101 3102 3103 3104 
3105 3106 3107 3108 3109 3110 3111 3112 3113 
3114 3115 3116 3081 3117 3118 3119 3120 3122 
3123 3125 3128 3124 3121 3126 3127 3129 3132 
3130 3131 3133 3136 3134 3135 3137 3140 3138 
3139 3141 3142 3143 3144 3145 3146 3147 3148 
3149 3150 3151 3152 3153 3154 3155 3156 3157 
3158 3159 3160 2805 3162 3163 3165 3168 3161 
2807 2809 3166 3167 3169 3172 2811 2813 3170 
3171 3173 3176 2817 2815 3174 3175 3177 3180 
2821 3178 3179 3181 3182 3183 3184 3185 3186 
3187 3188 2829 3189 3190 3191 3192 3193 3194 
3195 3196 3164 2801 2837 3197 3198 3199 3200 
3202 3205 3208 3243 3245 3204 3241 3203 3206 
3212 3247 3249 3210 3211 3216 3251 3253 3214 
3220 3255 3257 3215 3217 3218 3222 3223 3224 
3259 3261 3263 3219 3221 3225 3226 3227 3228 
3265 3267 3230 3232 3269 3271 3231 3229 3234 
3236 3273 3275 3233 3235 3237 3238 3240 3277 
3279 3201 3242 3248 3283 3285 3244 3246 3252 
3287 3289 3250 3256 3291 3293 3254 3260 3295 
3297 3258 3262 3264 3299 3301 3303 3266 3268 
3305 3307 3270 3272 3309 3311 3274 3276 3313 
3315 3281 3278 3280 3317 3319 3282 3288 3323 
3325 3284 3321 3286 3292 3327 3329 3290 3296 
3331 3333 3294 3300 3335 3337 3298 3302 3304 
3339 3341 3343 3306 3308 3345 3347 3310 3312 
3349 3351 3314 3316 3353 3355 3318 3320 3357 
3359 3322 3328 3363 3365 3324 3361 3326 3332 
3367 3369 3330 3336 3371 3373 3334 3340 3375 
3377 3338 3342 3344 3379 3381 3383 3346 3348 
3385 3387 3350 3352 3389 3391 3354 3356 3393 
3395 3358 3360 3397 3399 3362 3368 3402 3403 
3405 3408 3401 3366 3372 3406 3407 3409 3412 
3370 3376 3410 3411 3413 3416 3374 3380 3414 
3415 3417 3420 3378 3382 3384 3418 3419 3421 
3422 3423 3424 3386 3388 3425 3426 3427 3428 
3390 3392 3429 3430 3431 3432 3394 3396 3433 
3434 3435 3436 3364 3404 3398 3400 3437 3438 
3439 3440 3442 3443 3445 3448 3441 3444 3446 
3447 3449 3452 3450 3451 3453 3456 3454 3455 
3457 3460 3458 3459 3461 3462 3463 3464 3465 
3466 3467 3468 3469 3470 3471 3472 3473 3474 
3475 3476 3477 3478 3479 3480 3482 3483 3485 
3488 3481 3484 3486 3487 3489 3492 3490 3491 
3493 3496 3494 3495 3497 3500 3498 3499 3501 
3502 3503 3504 3505 3506 3507 3508 3509 3510 
3511 3512 3513 3514 3515 3516 3517 3518 3519 
3520 3522 3523 3525 3528 3521 3526 3527 3529 
3532 3530 3531 3533 3536 3534 3535 3537 3540 
3538 3539 3541 3542 3543 3544 3545 3546 3547 
3548 3549 3550 3551 3552 3553 3554 3555 3556 
3524 3557 3558 3559 3560 3562 3563 3565 3568 
3564 3209 3207 3566 3567 3569 3572 3213 3570 
3571 3573 3576 3574 3575 3577 3580 3578 3579 
3581 3582 3583 3584 3585 3586 3587 3588 3589 
3590 3591 3592 3593 3594 3595 3596 3239 3561 
3597 3598 3599 3600 45 3602 3608 3643 3645 
3601 9 6 3606 3612 3647 3649 53 3610 
3616 3651 3653 13 3613 3611 57 3614 3615 
3620 3655 3657 3617 22 61 18 3618 3622 
3624 3659 3661 3663 3619 26 3625 3626 3627 
3628 3665 3667 30 3630 3632 3669 3671 3631 
73 3634 3636 3673 3675 3633 3641 3604 3638 
3640 3677 3679 85 42 3642 3648 3683 3685 
46 89 3646 3652 3687 3689 93 50 3650 
3656 3691 3693 54 97 3654 3660 3695 3697 
58 62 101 3658 3662 3664 3699 3701 3703 
105 3666 3668 3705 3707 70 3670 3672 3709 
3711 113 3674 3676 3713 3715 3644 3681 3678 
3680 3717 3719 125 3682 3688 3723 3725 3721 
86 3686 3692 3727 3729 3690 3696 3731 3733 
94 3694 3700 3735 3737 98 141 3698 3702 
3704 3739 3741 3743 106 3706 3708 3745 3747 
149 3710 3712 3749 3751 153 3714 3716 3753 
3755 3684 3718 3720 3757 3759 165 3722 3728 
3763 3765 3761 169 3726 3732 3767 3769 3730 
3736 3771 3773 3734 3740 3775 3777 138 142 
181 3738 3742 3744 3779 3781 3783 185 146 
3746 3748 3785 3787 3750 3752 3789 3791 3754 
3756 3793 3795 3724 3758 3760 3797 3799 202 
162 3762 3768 3802 3803 3805 3808 3772 3766 
3806 3807 3809 3812 3770 3776 3810 3811 3813 
3816 214 3774 3780 3815 3817 3820 3814 221 
178 182 3778 3782 3784 3818 3819 3821 3822 
3823 3824 226 3786 3788 3825 3826 3827 3828 
3790 3792 3829 3830 3831 3832 3794 3796 3833 
3834 3835 3836 3804 3764 3801 3798 3800 3837 
3838 3839 3840 241 3842 3843 3845 3848 3844 
249 3846 3847 3849 3852 3850 3851 3853 3856 
3854 3855 3857 3860 3859 261 3858 3861 3862 
3863 3864 3865 3866 3867 3868 3869 3870 3871 
3872 273 274 3873 3874 3875 3876 277 278 
3841 3877 3878 3879 3880 285 282 3881 3882 
3883 3885 3888 289 286 3886 3887 3889 3892 
293 3890 3891 3893 3896 3894 3895 3897 3900 
298 301 3898 3899 3901 3902 3903 3904 305 
3905 3906 3907 3908 3909 3910 3911 3912 3913 
3914 3915 3916 317 3884 3917 3918 3919 3920 
325 3922 3923 3925 3928 326 3926 3927 3929 
3932 3930 3931 3933 3936 334 337 3934 3935 
3937 3940 341 3938 3939 3941 3942 3943 3944 
345 346 3945 3946 3947 3948 349 3949 3950 
3951 3952 3953 3954 3955 3956 3924 3921 3957 
3958 3959 3960 365 5 3603 3605 3962 3963 
3965 3968 3609 366 3607 3966 3967 3969 3972 
373 3970 3971 3973 3976 17 377 3974 3975 
3977 3980 381 382 21 3623 3621 3978 3979 
3981 3982 3983 3984 25 385 386 3985 3986 
3987 3988 3629 390 3989 3990 3991 3992 33 
3635 3993 3994 3995 3996 3639 3961 3964 3637 
3997 3998 3999 4000 
type 1 4000 int
1 1 1 1 1 1 1 1 1 
1 1 1 1 1 1 1 1 1 
1 1 1 1 1 1 1 1 1 
1 1 1 1 1 1 1 1 1 
1 1 1 1 1 1 1 1 1 
1 1 1 1 1 1 1 1 1 
1 1 1 1 1 1 1 1 1 
1 1 1 1 1 1 1 1 1 
1 1 1 1 1 1 1 1 1 
1 1 1 1 1 1 1 1 1 
1 1 1 1 1 1 1 1 1 
1 1 1 1 1 1 1 1 1 
1 1 1 1 1 1 1 1 1 
1 1 1 1 1 1 1 1 1 
1 1 1 1 1 1 1 1 1 
1 1 1 1 1 1 1 1 1 
1 1 1 1 1 1 1 1 1 
1 1 1 1 1 1 1 1 1 
1 1 1 1 1 1 1 1 1 
1 1 1 1 1 1 1 1 1 
1 1 1 1 1 1 1 1 1 
1 1 1 1 1 1 1 1 1 
1 1 1 1 1 1 1 1 1 
1 1 1 1 1 1 1 1 1 
1 1 1 1 1 1 1 1 1 
1 1 1 1 1 1 1 1 1 
1 1 1 1 1 1 1 1 1 
1 1 1 1 1 1 1 1 1 
1 1 1 1 1 1 1 1 1 
1 1 1 1 1 1 1 1 1 
1 1 1 1 1 1 1 1 1 