# vtk DataFile Version 4.0
Generated by LAMMPS
ASCII
DATASET POLYDATA
POINTS 4000 float
1.25833 1.34033 1.40954 5.10865 1.38818 1.30688 3.15906 1.46235 -0.861491 
8.98688 1.48281 1.36712 8.98302 -0.614585 3.37389 8.95741 3.52521 3.46811 
6.91431 1.43017 -0.872629 12.814 1.41852 1.43178 10.7951 1.35564 3.56829 
12.768 -0.594144 3.49299 12.7809 3.37758 3.53838 10.7822 1.4471 -0.811739 
16.3591 1.33503 1.20135 16.3873 3.60856 3.5234 16.6182 -0.634376 3.37397 
20.3924 1.55975 1.55782 18.4532 1.47715 3.65803 22.1772 -0.739492 1.24375 
18.2582 1.44937 -0.619573 20.1523 -0.527551 -0.720475 18.2844 3.46965 1.59772 
23.9756 1.45808 1.36034 24.2806 -0.460396 -0.701632 25.7896 1.42412 3.4331 
23.8119 -0.638625 3.62899 27.6549 1.46228 1.62499 29.5493 1.71104 -0.452672 
27.7297 -0.592238 -0.625391 29.7657 -0.490746 1.29233 31.5792 1.53287 1.59071 
33.4691 3.69427 1.41028 33.5686 1.6871 -0.443166 33.5025 -0.567895 1.46974 
33.406 1.49228 3.56369 31.5572 3.56554 3.50473 35.2879 1.50578 1.5851 
35.3683 -0.576245 -0.631451 37.3068 1.4849 3.41847 3.10147 3.67927 1.33128 
5.37258 5.61117 1.43247 1.41202 5.73178 1.34549 1.45402 3.49616 3.3849 
7.03888 3.34289 1.13397 8.80249 5.50974 1.42839 7.09876 5.60829 3.4923 
7.29291 7.80131 1.3468 10.9356 3.46623 1.23789 12.6942 5.55254 1.34121 
10.9103 5.50373 3.50922 14.3957 3.48092 1.19562 16.3796 5.50603 1.46776 
14.6739 5.52538 3.56131 14.6239 7.62732 1.51735 16.3731 7.75109 3.51457 
22.1289 3.7577 1.46059 20.1006 5.65667 1.56522 18.2737 7.74821 1.50017 
25.7074 3.53424 1.49947 24.1154 5.74433 1.3556 25.9995 7.7531 1.61616 
25.9721 5.72985 3.53145 29.6575 3.70829 1.53202 27.6468 5.65048 1.5539 
29.6748 7.67291 1.55848 29.7337 5.78416 3.46144 31.6361 5.73252 1.41576 
33.6299 7.73311 1.392 31.7372 7.85896 3.61931 33.5349 5.69025 3.61549 
37.2458 3.32683 1.33507 35.4756 5.59401 1.50659 37.2993 7.62195 1.38942 
37.2974 5.47273 -0.759533 3.31609 7.63544 1.37419 5.13541 7.64116 3.53702 
5.28994 9.72028 1.35511 3.13341 9.77898 3.40834 1.37994 11.9829 3.44538 
8.93757 7.65093 3.46274 8.9482 9.99593 1.43096 10.8238 7.81945 1.56534 
12.8375 7.60246 3.49325 12.7655 9.83036 1.3934 10.8099 9.84411 3.58662 
10.7829 12.0915 1.47296 16.4953 9.74834 1.54057 14.5708 10.0635 3.58725 
16.65 11.9297 3.56771 22.0383 7.92429 1.54575 20.3553 10.0276 1.57202 
22.2061 12.0327 1.53315 20.1286 12.001 3.51807 22.0823 9.9132 3.71955 
18.3458 9.75933 -0.561879 24.0275 9.82292 1.52568 26.0024 11.6944 1.54355 
24.131 7.79394 3.60287 25.9612 9.90127 3.70491 24.0711 11.9912 3.5514 
29.8516 9.90735 -0.806991 27.9337 9.69633 1.44954 29.576 11.8728 1.3367 
27.963 11.7977 3.51641 31.5045 9.82625 1.56996 33.4286 11.8878 1.35998 
33.4185 10.0772 3.50618 31.4496 11.9265 3.38197 38.9629 9.80764 1.40495 
35.316 7.88134 3.57404 35.3395 9.70306 1.4762 37.2877 9.81303 3.58102 
35.3197 11.9658 3.47232 37.2403 9.82135 -0.772698 37.1785 11.9516 1.33778 
35.552 11.8583 -0.724581 5.02974 11.6487 3.43468 3.11492 11.6634 1.31938 
5.05243 13.8207 1.36853 3.17128 15.9931 1.42984 3.32715 14.0832 3.48452 
5.15966 15.9906 -0.536448 7.11123 12.0123 1.55821 8.82566 14.1142 1.49184 
7.02639 16.0278 1.34191 6.78865 14.0251 3.55581 8.89217 16.1628 -0.719014 
12.6462 14.0256 1.31656 12.6168 15.969 -0.866953 14.5938 11.9543 1.50821 
16.4552 11.9134 -0.634664 16.3927 13.9479 1.46576 14.5354 13.8758 -0.808735 
18.2318 11.7725 1.54285 20.237 14.0128 1.4297 18.2554 16.0355 1.6625 
22.2011 14.0804 3.59822 22.0607 16.1578 1.34518 23.9695 14.1718 1.52744 
25.8632 16.0786 1.45728 24.1442 16.071 -0.835094 27.8263 13.9402 1.36463 
29.5491 16.0369 1.43314 29.6971 13.9573 -0.767917 31.5774 13.9725 1.38776 
33.684 16.0208 1.46377 39.164 13.8597 1.25952 35.4371 13.8969 1.39038 
39.2007 15.8356 -0.734192 37.2638 14.1106 -0.677368 37.198 16.1148 1.3559 
35.4328 16.0982 -0.767447 4.84157 18.2711 1.37018 3.00249 20.3176 1.51001 
1.1115 16.0287 3.44253 8.88548 18.0812 1.57892 10.8335 16.1091 1.44285 
12.6605 16.0195 3.37795 12.8667 17.9823 1.199 11.0067 18.1228 3.38652 
10.9622 20.3377 1.48404 14.6525 15.9628 1.33294 16.2833 18.1697 1.51642 
14.4704 18.1966 3.58379 16.4409 15.8312 -0.636716 14.4077 20.2549 1.36027 
16.3268 16.1511 3.64602 20.2993 18.2033 1.48619 20.1919 16.045 3.63133 
20.0959 16.0409 -0.598227 22.1335 18.2062 -0.801908 23.8946 18.2452 1.44698 
25.9492 20.0901 1.54355 24.0414 20.2065 3.64381 25.9594 18.0987 -0.636556 
27.9324 18.1283 1.41664 29.7146 20.2793 1.53238 27.8969 16.0639 -0.73803 
29.8064 18.1005 -0.662214 31.7653 18.2281 1.42102 33.5543 18.2287 -0.722573 
33.5462 20.1786 1.4465 33.5893 18.1816 3.62398 39.2519 18.1004 1.33743 
35.3995 18.2142 1.32383 37.2737 18.1732 3.48208 37.4834 20.1846 1.37604 
35.3855 20.4122 3.42682 35.4754 20.2295 -0.74004 5.1596 22.2596 1.4004 
1.40917 22.3755 1.59213 3.44792 24.5638 1.4021 7.06273 20.1616 1.58065 
9.04951 20.4018 3.53585 9.0107 20.219 -0.408982 8.97934 22.4737 1.37429 
6.78067 24.4723 1.40856 8.69949 24.5073 -0.4447 12.6714 20.489 3.67878 
12.6386 22.4009 1.43882 10.762 22.4824 3.58933 10.8275 22.4001 -0.583302 
10.8113 24.3624 1.36238 16.3609 22.3163 1.32636 16.3586 20.2673 3.40984 
14.65 22.3509 3.6134 18.5848 20.2392 1.5736 22.1403 20.3423 1.43932 
20.3366 22.4634 1.45067 22.1208 22.2919 3.58393 18.2865 24.3224 1.51873 
20.1006 20.2304 3.56122 18.2399 22.314 3.44576 23.9738 22.2407 1.6158 
25.958 22.2357 3.57481 23.9479 20.2989 -0.575568 25.9553 22.1871 -0.626723 
27.7451 20.2155 -0.745868 27.7198 22.4227 1.47253 31.6922 22.3295 1.21766 
33.4131 22.3102 3.58694 33.5588 24.4727 1.26777 31.5985 20.2627 -0.637265 
31.6349 24.3464 -0.702349 35.4404 22.2496 1.44672 37.2853 22.3425 3.43586 
37.2744 24.4712 1.30625 37.312 22.4448 -0.85588 5.09495 24.563 -0.676428 
5.29996 26.7335 1.58977 3.33458 26.6328 3.36955 3.35361 26.5765 -0.614089 
1.4631 26.4655 1.51973 8.90191 26.5181 1.60138 7.04888 28.5667 1.38706 
6.90424 26.6959 3.75628 7.00431 26.4889 -0.69448 10.7659 26.3816 -0.668016 
12.6669 26.3725 1.42775 10.8905 26.482 3.63486 10.9489 28.5609 1.43382 
12.6927 28.5114 -0.711618 14.5037 24.3684 1.40133 16.3531 26.4133 1.5459 
16.3262 28.7526 3.49764 16.469 24.4536 -0.536274 22.1309 24.3687 1.41102 
20.1441 26.4276 1.44711 20.2062 24.2673 3.59945 22.0979 26.4599 3.39396 
25.6634 24.3404 1.37658 24.0403 26.4974 1.371 25.9672 26.5447 3.32856 
25.8766 26.5559 -0.834825 24.1083 24.3503 3.60718 29.7982 24.3666 1.43766 
27.8059 24.3908 -0.691603 27.8555 26.3661 1.2745 29.7088 26.3707 -0.79847 
29.6068 28.7293 1.54494 27.7425 24.3757 3.3707 31.7488 26.6696 1.13073 
33.5599 26.5745 -0.883342 35.3176 26.5987 1.32383 37.2351 26.4373 3.51234 
37.4046 28.5723 1.26206 39.0301 24.5675 -0.823102 37.2979 26.5201 -0.674425 
3.33896 28.7582 1.39368 5.1612 28.8113 -0.672195 5.21232 30.7733 1.33369 
3.31901 32.7631 1.50357 3.17756 30.7135 -0.592174 9.0878 28.5777 -0.592287 
9.06394 30.7106 1.58177 7.09725 32.7746 1.55249 6.96722 30.6707 3.44865 
12.699 30.793 1.53064 10.8601 30.7451 3.62568 10.9274 30.6241 -0.761895 
14.4666 28.4508 1.38854 16.4319 30.6815 1.40418 16.4895 28.6476 -0.752817 
18.2914 28.4861 1.43352 20.25 28.7916 3.45675 20.2606 28.625 -0.527998 
22.2178 28.4639 1.46274 20.3582 30.7779 1.39384 18.3922 32.9133 1.42163 
22.1403 30.8007 -0.542739 22.2408 32.8558 1.44882 25.9662 28.596 1.31841 
24.086 30.6658 1.48751 26.1266 30.6747 -0.553752 27.9489 30.9556 1.31366 
29.8013 30.6619 3.5635 29.9126 30.7451 -0.734839 33.5868 28.7657 1.21136 
31.6588 30.6281 1.27741 33.4857 30.6248 -0.733057 33.5306 30.9159 3.36172 
31.547 28.4848 -0.700875 39.1045 30.8261 1.51322 35.4443 30.7096 1.2518 
39.2864 28.5211 -0.618174 37.3828 30.5716 -0.89865 35.3323 28.5919 -0.715243 
35.5142 32.7619 -0.708959 5.19158 34.8449 1.44896 3.3242 34.7956 -0.693687 
3.41403 36.9328 1.38935 8.90201 34.9901 1.31023 7.00673 36.8745 1.46607 
8.93234 36.9141 -0.717389 10.7406 32.7362 1.46031 12.8213 34.9413 1.40142 
10.8599 34.7667 3.44457 10.9115 34.8714 -0.634933 12.7183 36.8917 3.51665 
14.758 32.8692 1.40132 16.3389 34.9181 1.45295 16.6214 32.8818 -0.697017 
16.4519 36.9432 3.58651 20.3528 32.7744 -0.473363 20.328 35.1058 1.25685 
18.3011 34.8576 3.40408 22.1313 34.925 -0.632842 18.4585 34.994 -0.69503 
25.9248 32.7887 1.13709 24.0415 34.8614 1.5965 25.941 35.0247 -0.671723 
24.0625 32.9485 -0.734634 29.9072 32.9006 1.58901 27.8772 34.9343 1.54809 
28.1092 32.8014 -0.629276 29.7886 35.1677 -0.578393 33.556 32.8108 1.33596 
31.6984 35.0966 1.34776 31.6753 32.9419 -0.611439 31.6624 37.2422 -0.678624 
39.1253 34.757 1.56281 37.3329 32.7717 1.43121 35.3932 34.8201 1.27704 
37.2849 37.1839 1.43603 5.00389 41.05 -0.801173 3.22843 41.2787 1.33654 
5.1472 39.0869 1.32184 1.55606 38.9793 1.43248 1.32512 36.5325 -0.78257 
1.38574 41.1119 3.55648 5.11012 37.0869 3.56553 6.94419 41.2808 1.29004 
8.95814 39.1368 1.29305 7.00086 39.0407 -0.661213 8.91686 41.2562 -0.808397 
10.8085 41.2012 1.21398 10.7398 36.9279 1.35657 12.6419 39.038 1.38384 
14.4848 41.1095 1.42514 14.5865 37.0553 1.52061 16.6484 39.2159 1.49167 
14.4917 39.1569 3.39874 18.3299 41.4721 1.51022 18.3183 36.9791 1.32996 
22.088 37.0544 1.49483 19.9177 39.1753 1.31378 18.547 39.1103 3.61304 
22.1286 39.0246 -0.613986 25.836 41.3226 1.57597 25.8321 37.1804 1.51182 
24.2397 39.0784 1.44805 26.0473 39.0041 -0.743887 29.7489 37.1805 1.35961 
27.811 39.147 1.53166 27.7684 36.9845 -0.545613 29.5258 39.1478 -0.628541 
33.5582 37.316 1.26899 31.6519 39.3451 1.27283 33.5308 39.1295 3.52974 
33.6608 39.2482 -0.621211 37.3907 41.0911 1.49176 35.4002 39.3017 1.41561 
35.3771 37.0593 3.3163 37.2305 39.1586 3.42775 37.2873 38.8725 -0.657069 
3.28294 1.42819 3.53094 5.25002 1.47203 5.39971 3.22274 1.31949 7.63608 
5.15353 3.47964 3.32819 3.33296 3.4853 5.45142 5.02831 3.39978 7.69833 
3.29076 -0.590881 5.46297 7.19005 1.44311 3.48963 8.87088 1.42417 5.77514 
7.0354 1.27806 7.84016 7.07616 -0.780696 5.52623 12.8347 1.53943 5.61883 
10.8859 1.27113 7.81111 12.6201 -0.731531 7.81593 14.7462 1.49994 3.46952 
16.4285 1.40067 5.68671 14.623 1.28124 7.59628 20.179 3.61976 3.59817 
[...]
POINT_DATA 4000
FIELD FieldData 6
id 1 4000 int
4 8 2 12 409 449 6 16 410 
413 453 10 20 457 417 24 418 23 
18 21 59 28 25 426 425 32 30 
29 31 36 75 34 35 434 473 40 
37 438 43 48 44 441 47 52 446 
87 51 56 450 55 60 454 95 497 
63 64 99 67 68 107 466 71 72 
111 470 76 115 513 474 79 80 119 
78 83 485 88 482 521 489 92 91 
493 96 490 131 100 494 537 103 104 
143 541 502 98 108 147 505 506 545 
110 112 151 549 116 155 514 553 84 
517 120 518 557 118 159 157 525 123 
128 163 522 165 127 132 167 526 169 
136 173 135 137 140 134 139 144 179 
542 183 148 187 185 152 191 150 156 
195 124 160 161 158 199 197 168 203 
561 172 171 573 176 570 211 175 180 
574 177 215 577 184 581 181 182 188 
227 625 186 192 231 189 190 196 194 
235 594 164 200 598 239 637 237 208 
204 243 207 609 209 212 247 249 613 
216 610 210 251 220 617 614 219 223 
224 622 259 621 618 228 626 225 226 
229 232 236 634 275 233 273 240 638 
279 238 245 248 642 242 244 252 287 
646 246 250 256 650 291 293 255 260 
697 257 263 264 661 662 267 268 666 
266 665 271 269 272 270 311 669 276 
274 280 678 319 241 278 283 285 288 
323 282 289 292 327 686 296 690 290 
295 300 297 299 701 301 303 304 339 
302 343 307 308 306 312 710 310 315 
316 314 714 313 284 320 281 318 317 
357 328 322 363 332 367 369 331 336 
730 330 773 335 340 337 777 341 344 
738 342 338 347 348 346 345 351 352 
349 350 355 356 353 393 324 359 360 
399 5 3 368 364 361 401 765 7 
372 366 9 11 371 376 15 375 380 
774 19 379 383 384 778 382 27 387 
388 386 391 392 389 390 395 396 794 
394 39 400 797 798 398 402 408 802 
445 443 845 403 406 412 806 407 416 
810 813 414 420 814 461 422 424 818 
419 465 428 467 825 826 430 432 471 
469 431 436 435 404 440 838 837 442 
448 483 444 841 885 447 452 889 487 
846 451 456 893 455 460 854 897 458 
462 459 463 464 503 468 507 509 869 
472 511 870 475 476 913 478 479 481 
477 877 480 488 484 523 921 486 492 
527 491 496 495 500 535 894 501 498 
901 499 504 902 898 508 945 906 510 
909 512 910 515 516 555 914 519 917 
520 559 528 563 524 922 529 532 533 
530 531 933 536 534 540 539 543 538 
544 942 546 547 548 946 587 985 551 
550 589 552 591 989 949 554 556 595 
954 593 993 558 957 597 560 958 961 
565 562 605 568 603 1005 564 566 569 
567 572 607 973 571 576 1013 970 575 
580 615 977 974 578 582 579 583 981 
584 978 982 585 586 588 627 986 590 
592 990 1029 631 633 596 635 994 599 
601 600 998 1037 602 645 608 604 1002 
606 612 647 611 653 616 1010 1053 651 
620 1014 655 619 623 624 1022 659 628 
667 1065 1026 630 629 632 1030 1069 636 
1034 675 1073 639 677 640 1038 641 643 
648 683 1045 649 652 1089 656 1050 1093 
654 657 660 658 663 664 1061 1062 699 
703 1058 668 707 1066 709 671 670 672 
711 674 673 676 1074 1113 679 681 644 
680 1078 719 685 682 688 684 721 723 
687 689 692 729 727 693 691 696 1090 
694 695 700 702 741 698 704 705 706 
708 1106 712 713 715 716 718 717 720 
1117 759 1118 725 722 728 724 763 1161 
726 769 732 767 1129 733 731 736 771 
1173 737 734 735 740 775 742 739 743 
744 1141 1142 745 747 746 748 787 785 
749 750 751 752 1150 791 754 753 1153 
755 756 795 757 758 760 799 405 762 
768 761 764 1162 766 772 1166 1169 770 
411 776 1170 415 780 421 782 423 781 
783 779 784 786 427 788 1186 789 790 
429 792 1190 433 793 796 1193 437 439 
800 808 1202 804 803 801 843 849 809 
812 807 816 811 817 820 815 822 861 
824 819 821 828 827 830 832 1230 834 
836 875 833 840 839 842 844 848 883 
1242 1241 847 852 853 850 851 856 1250 
1293 855 857 860 858 862 859 863 864 
1258 865 866 867 1265 868 1266 905 907 
1305 871 872 911 873 874 1273 876 1274 
915 881 878 879 880 919 1277 1281 882 
888 884 1282 886 887 892 1286 890 891 
896 931 1290 895 900 1294 1337 903 899 
904 1302 1341 908 1306 1309 912 1310 1349 
953 916 955 918 920 1318 925 923 928 
924 926 929 927 932 967 930 936 1330 
1373 1333 937 934 935 940 941 938 939 
943 1338 944 947 1345 948 1346 951 950 
952 991 1353 956 995 959 960 999 1357 
1358 962 963 965 968 964 969 966 1009 
972 1409 1007 1369 971 976 1011 1370 975 
980 1374 979 983 984 1378 1023 1421 1025 
987 988 1027 1386 992 1390 1389 1429 1033 
996 1035 997 1000 1039 1001 1003 1008 1004 
1043 1445 1006 1049 1012 1406 1047 1016 1051 
1017 1015 1020 1055 1057 1018 1021 1019 1024 
1063 1059 1422 1028 1067 1031 1032 1071 1430 
1036 1075 1040 1438 1077 1085 1042 1048 1442 
1083 1046 1449 1052 1056 1054 1060 1497 1064 
1099 1103 1101 1462 1068 1466 1107 1070 1109 
1072 1111 1509 1076 1474 1115 1513 1079 1041 
1044 1441 1080 1082 1081 1088 1123 1086 1087 
1092 1486 1529 1091 1096 1533 1490 1094 1097 
1095 1100 1137 1098 1102 1104 1139 1105 1505 
1108 1506 1545 1149 1110 1112 1549 1114 1116 
1514 1155 1119 1084 1120 1159 1157 1121 1122 
1125 1124 1128 1126 1127 1132 1167 1130 1133 
1131 1136 1530 1135 1134 1140 1138 1143 1144 
1179 1541 1145 1146 1147 1148 1585 1189 1151 
1152 1550 1589 1154 1156 1195 1158 1160 1199 
1165 805 1163 1168 1164 1561 1172 1566 1569 
1171 1176 1174 1177 1175 1180 1217 1182 823 
1581 1178 1181 1183 1184 1582 1185 1187 1188 
829 831 1191 1192 1194 835 1196 1197 1198 
1200 1598 1205 1208 1204 1206 1209 1212 1207 
1606 1210 1253 1213 1216 1251 1211 1214 1220 
1614 1218 1222 1261 1224 1223 1226 1225 1228 
1227 1625 1269 1229 1232 1271 1234 1236 1233 
1235 1238 1237 1240 1239 1638 1245 1243 1248 
1283 1244 1642 1681 1249 1246 1247 1649 1252 
1256 1653 1254 1257 1255 1260 1295 1697 1259 
1263 1262 1264 1303 1661 1267 1268 1705 1666 
1270 1272 1670 1311 1313 1275 1276 1713 1278 
1279 1280 1678 1285 1288 1284 1685 1682 1287 
1289 1292 1327 1686 1291 1296 1331 1297 1300 
1694 1301 1298 1299 1304 1343 1702 1339 1741 
1307 1308 1347 1706 1709 1312 1351 1749 1314 
1315 1316 1714 1753 1317 1319 1717 1320 1359 
1323 1325 1321 1322 1328 1329 1326 1332 1726 
1336 1730 1371 1335 1334 1340 1734 1737 1342 
1344 1379 1781 1745 1348 1746 1350 1352 1750 
1354 1355 1356 1793 1395 1324 1360 1361 1399 
1362 1365 1363 1368 1403 1364 1366 1367 1372 
1407 1769 1376 1411 1770 1813 1377 1375 1380 
1817 1415 1382 1381 1383 1384 1419 1782 1385 
1425 1387 1388 1427 1825 1391 1789 1392 1431 
1790 1393 1394 1396 1794 1397 1398 1400 1439 
1401 1402 1405 1801 1408 1443 1404 1845 1412 
1806 1410 1413 1416 1810 1451 1414 1417 1420 
1461 1423 1418 1424 1463 1861 1426 1428 1467 
1469 1432 1829 1433 1435 1434 1436 1833 1477 
1437 1440 1479 1485 1448 1444 1483 1446 1489 
1447 1452 1846 1487 1450 1453 1456 1491 1454 
1457 1455 1460 1495 1897 1459 1458 1464 1862 
1501 1499 1503 1465 1468 1905 1470 1471 1472 
1909 1473 1475 1476 1515 1517 1877 1478 1480 
1519 1482 1481 1881 1488 1484 1882 1492 1493 
1496 1531 1933 1494 1500 1535 1498 1502 1504 
1902 1539 1543 1507 1508 1547 1945 1906 1511 
1510 1512 1553 1913 1516 1914 1518 1520 1917 
1525 1522 1523 1528 1524 1563 1526 1527 1532 
1926 1573 1536 1534 1537 1540 1575 1538 1542 
1544 1942 1579 1546 1548 1946 1949 1551 1552 
1591 1950 1554 1555 1556 1593 1595 1557 1521 
1559 1558 1560 1957 1597 1562 1565 1965 1601 
1203 1568 1605 1567 1572 1966 1571 1570 1576 
1613 1215 1577 1574 1580 1974 1578 1221 1219 
1981 1584 1982 1583 1978 1985 1586 1587 1588 
1231 1590 1592 1594 1596 1994 1201 1564 1599 
1600 1602 1608 2005 2001 1609 1612 2006 1607 
1610 1616 1651 2010 1657 1617 1620 1655 1615 
1618 1622 1621 1624 2022 1659 1663 1619 1626 
1665 1628 1667 1627 1630 1632 1671 2030 1634 
1636 1635 1673 2034 1637 1604 1640 2077 1639 
1677 2038 1641 1645 2045 1643 1648 1683 1646 
1647 1652 1650 1693 1656 1691 2053 2050 2093 
1654 1660 1658 2061 1662 1664 1701 1668 2066 
1669 2069 1672 2070 1674 1675 1676 1715 2113 
2041 1644 1679 1680 1688 1684 1723 1689 1687 
1692 1727 1733 1690 1696 1731 1695 1700 2094 
1735 1699 1703 1698 1739 1704 2102 1707 1708 
2106 1747 2105 1711 1710 2109 1712 2110 1716 
1755 2114 1718 1719 1720 1759 2081 2118 1725 
1721 1722 1728 2122 2165 1729 1732 1773 1736 
1771 2173 1777 1740 2134 2177 1738 1742 1743 
1744 2138 1783 1779 2145 1748 2146 1751 1752 
1791 2150 1754 1756 1757 1758 1724 1760 2158 
1805 1765 1762 1763 1768 2162 2205 1766 1767 
1772 1807 2209 1776 1811 2170 1774 1775 1780 
2174 2217 1778 1821 1784 1819 2178 2221 1786 
1785 1787 2185 1788 1827 2225 2189 1792 2190 
1795 1796 1761 1764 1797 1798 1799 1800 1802 
1803 1808 2245 1809 1849 1812 1847 1816 2210 
2213 1814 1857 1815 1820 1823 1818 1822 1824 
2218 1863 2222 1826 1828 1830 1831 1832 2230 
1834 1835 1836 1837 1838 1839 1804 1840 1842 
1843 1848 1883 2241 2242 1852 1889 1853 1850 
1851 1856 1854 1855 1860 1895 2257 1858 1859 
1864 2261 1899 2258 1866 1865 1867 1868 1907 
1869 1871 1870 1872 1911 2309 1873 1874 1875 
1876 2274 1915 1878 1841 1844 1879 1880 1885 
1925 1888 2282 1884 2325 1887 1886 1929 1892 
1927 1893 1891 1890 1896 1931 1937 1894 1900 
1935 2294 1901 1898 1903 1904 1908 2306 1947 
2305 1910 1912 2349 1953 1916 2313 1918 1919 
1920 2321 1959 1922 1923 1928 2365 1963 2322 
1932 2329 1930 1936 1973 1971 1934 1977 1940 
1941 1939 1943 1938 1944 2338 1948 2385 1989 
1951 1952 1991 2350 1954 1955 1956 1961 1921 
1924 1958 1960 1603 1962 1968 2362 1969 1967 
1972 2009 1970 1611 1976 2013 1975 1980 1623 
1979 1983 1984 2382 1986 1987 1988 1629 1631 
1990 1992 1633 1993 1995 1996 2033 2393 1997 
1998 1999 1964 2000 2002 2004 2008 2445 2043 
2003 2402 2405 2012 2047 2049 2406 2007 2409 
2016 2051 2410 2017 2014 2020 2015 2057 2018 
2021 2019 2023 2024 2059 2026 2025 2028 2426 
2032 2071 2429 2430 2036 2073 2075 2434 2473 
2040 2037 2438 2079 2477 2437 2042 2048 2442 
2449 2046 2052 2489 2056 2450 2055 2054 2060 
2457 2058 2063 2062 2064 2065 2067 2068 2072 
2470 2509 2111 2469 2074 2076 2115 2513 2117 
2044 2078 2080 2083 2085 2082 2088 2084 2481 
2089 2087 2086 2092 2129 2091 2090 2096 2490 
2131 2133 2097 2095 2100 2137 2101 2099 2103 
2501 2098 2104 2141 2498 2107 2108 2545 2506 
2112 2151 2510 2149 2153 2116 2155 2514 2119 
2121 2120 2157 2159 2557 2123 2125 2128 2525 
2522 2161 2126 2127 2132 2167 2130 2136 2171 
2530 2573 2135 2140 2577 2142 2139 2143 2144 
2542 2541 2147 2148 2546 2152 2589 2154 2156 
2193 2195 2593 2553 2197 2124 2160 2561 2163 
2168 2164 2605 2169 2166 2172 2207 2566 2176 
2211 2570 2175 2180 2215 2574 2181 2182 2183 
2179 2184 2223 2582 2186 2187 2188 2625 2585 
2586 2229 2191 2192 2231 2590 2194 2196 2233 
2199 2198 2200 2239 2202 2203 2208 2204 2243 
2602 2206 2249 2212 2247 2216 2251 2214 2220 
2614 2617 2621 2219 2224 2618 2661 2226 2227 
2228 2267 2626 2265 2232 2629 2630 2669 2235 
2234 2236 2201 2238 2237 2240 2641 2248 2244 
2283 2246 2252 2287 2250 2293 2253 2256 2291 
2650 2297 2255 2254 2260 2301 2259 2264 2263 
2299 2658 2662 2701 2303 2262 2266 2268 2269 
2270 2271 2272 2670 2273 2275 2276 2713 2277 
2279 2278 2280 2678 2717 2285 2281 2288 2284 
2286 2289 2292 2327 2686 2290 2296 2333 2690 
2295 2300 2335 2298 2302 2304 2343 2702 2341 
2698 2308 2307 2347 2745 2311 2310 2312 2710 
2749 2314 2353 2315 2316 2317 2318 2357 2319 
2320 2359 2323 2328 2363 2326 2332 2367 2729 
2726 2330 2331 2336 2730 2337 2334 2340 2734 
2342 2339 2344 2379 2738 2742 2345 2346 2348 
2387 2389 2351 2352 2391 2789 2355 2354 2356 
2754 2793 2324 2358 2360 2757 2758 2368 2364 
2366 2369 2372 2011 2370 2371 2373 2376 2377 
2374 2375 2380 2381 2378 2383 2384 2386 2027 
2388 2029 2390 2031 2392 2790 2394 2035 2395 
2396 2361 2039 2401 2397 2398 2399 2400 2798 
2408 2443 2404 2802 2412 2806 2849 2407 2416 
2411 2813 2414 2420 2418 2417 2415 2814 2422 
2421 2424 2459 2818 2822 2423 2861 2465 2428 
2467 2826 2432 2830 2471 2829 2436 2475 2433 
2873 2440 2439 2801 2838 2448 2842 2881 2447 
2446 2452 2846 2889 2451 2453 2456 2491 2493 
2454 2455 2460 2495 2461 2463 2458 2462 2464 
2499 2858 2466 2468 2865 2866 2472 2511 2870 
2474 2476 2913 2874 2479 2441 2444 2478 2480 
2877 2482 2483 2485 2488 2885 2882 2529 2487 
2486 2492 2886 2496 2531 2533 2494 2497 2500 
2894 2535 2502 2503 2504 2539 2543 2505 2905 
2507 2508 2906 2945 2909 2512 2910 2515 2516 
2914 2555 2953 2517 2519 2484 2518 2520 2918 
2921 2521 2523 2528 2524 2925 2569 2527 2526 
2532 2536 2571 2537 2534 2540 2538 2544 2938 
2941 2547 2548 2946 2550 2949 2549 2551 2552 
2950 2989 2554 2556 2993 2558 2559 2560 2563 
2565 2562 2568 2564 2567 2572 2607 2609 3009 
2576 2613 2575 2580 2615 2977 3017 2581 2579 
2583 2578 2584 2981 2978 2982 2619 3021 2587 
2588 2985 2623 2986 2591 2592 2990 2594 2633 
2595 2596 2994 2635 2597 2599 2598 2600 2637 
3037 2601 2603 2608 2604 2645 2643 3045 2606 
2649 2612 2647 3013 2610 2611 2616 2651 2653 
2657 2620 2655 3014 2622 2624 3022 2659 3018 
2665 2627 2628 3025 3026 2631 3029 2632 2671 
2673 2634 2636 2675 3034 3033 3073 2638 2639 
2640 2679 2642 2648 2644 2646 2652 2687 3049 
2656 2691 3050 3093 2693 2654 2660 2695 2697 
3054 2663 2664 2699 3061 3062 2666 2667 2668 
3065 3066 2709 2672 2711 3070 2674 2676 2715 
3113 3077 2677 2680 2719 3078 2682 2685 2683 
2681 2688 3082 3085 2689 2692 3086 2696 3090 
2694 2700 2735 2737 3094 2703 2704 2741 2739 
2743 3098 2705 2707 2706 2708 3106 2747 2712 
2751 3110 2714 2716 3153 2684 2721 2718 2720 
3117 3118 2725 2722 2723 2728 2763 2727 2732 
3126 2733 2773 2731 2736 3173 3130 2777 2740 
3134 2775 2744 2779 3138 3142 2746 2785 2748 
3185 2750 2752 2791 3149 2753 2755 2756 3193 
2724 2759 2760 3197 2403 2765 2762 2768 2805 
2767 2769 3169 2766 2772 3166 2413 2770 2771 
2776 3170 2817 2774 2780 3174 2781 2778 2782 
2419 2821 2783 2784 3182 3178 2425 2786 2427 
2787 2788 2825 2431 2792 3190 2794 2435 2795 
2796 2833 2761 2799 3161 2764 2797 2800 2808 
2804 2803 3201 2812 2809 3209 2853 2810 2816 
3210 2857 2820 2855 2824 2859 2863 2828 3226 
2827 3265 3225 2832 3230 3269 2834 2836 3234 
3273 2841 2840 2839 2837 3238 3277 3237 2843 
2845 2848 2844 3285 2847 2852 3246 2850 2893 
2851 2856 2891 3250 2854 2860 2897 3254 2895 
3257 2862 2864 3261 3258 3262 3301 2867 2868 
2907 3266 2869 2871 2872 3270 3309 2875 2876 
2915 2879 2878 2880 2919 2917 3317 3278 2883 
2888 2884 3282 2887 2892 2890 2896 2931 3290 
2900 2937 3294 2901 2902 2903 2899 2898 2904 
3302 2908 2947 3345 2911 2912 2916 3353 2920 
2959 3281 2923 2922 2928 2965 3325 2929 2927 
2926 2932 2967 2973 3333 2933 2930 2936 2934 
2935 2940 3337 3334 2942 2939 2943 2944 3338 
2948 3385 2987 3346 2951 2952 3349 2991 2954 
2955 2956 3393 2957 2924 2958 2960 2962 2963 
2968 3001 2969 2966 2972 3007 2971 2970 2976 
3011 3413 2975 2974 2980 3015 3374 2983 2979 
2984 3381 3019 3378 2988 3386 3389 2992 3031 
3390 3429 2995 2996 3035 2961 2997 2999 2964 
2998 3000 3039 3005 3002 3003 3008 3006 3012 
3449 3010 3016 3051 3410 3453 3020 3057 3414 
3421 3023 3024 3422 3059 3418 3027 3028 3069 
3030 3032 3071 3469 3036 3075 3433 3473 3038 
3041 3004 3040 3438 3477 3043 3042 3048 3442 
3083 3046 3047 3052 3087 3446 3053 3056 3450 
3091 3097 3055 3060 3095 3454 3457 3058 3101 
3063 3064 3099 3458 3462 3067 3068 3466 3072 
3111 3470 3074 3076 3115 3474 3079 3044 3080 
3478 3441 3081 3088 3123 3089 3092 3127 3529 
3096 3490 3100 3135 3137 3494 3103 3102 3104 
3139 3141 3143 3145 3105 3107 3108 3147 3505 
3545 3109 3112 3151 3114 3116 3514 3155 3084 
3119 3120 3121 3481 3521 3125 3122 3128 3163 
3522 3129 3132 3167 3526 3569 3133 3131 3136 
3533 3171 3573 3177 3140 3175 3537 3181 3144 
3179 3183 3146 3148 3187 3585 3546 3150 3152 
3189 3191 3589 3154 3156 3195 3553 3157 3158 
3159 3124 3160 3558 3205 3165 3565 3162 3168 
3562 2807 3172 3566 2811 3176 3570 2815 3180 
3574 3221 2819 2823 3184 3578 3186 3188 2831 
3192 2835 3194 3196 3233 3199 3597 3164 3198 
3200 3202 3208 3243 3203 3602 3645 3206 3249 
3212 3606 3609 3216 3251 3253 3653 3610 3613 
3214 3220 3614 3657 3222 3218 3224 3263 3219 
3223 3228 3267 3227 3232 3229 3271 3630 3236 
3275 3634 3235 3204 3241 3240 3239 3641 3637 
3245 3242 3248 3244 3685 3289 3247 3252 3287 
3646 3689 3293 3256 3291 3650 3693 3255 3260 
3697 3259 3264 3303 3658 3662 3268 3307 3666 
3669 3272 3670 3274 3276 3313 3315 3713 3674 
3279 3280 3319 3677 3678 3283 3288 3682 3323 
3286 3292 3327 3686 3296 3331 3690 3295 3297 
3300 3299 3298 3304 3343 3701 3702 3339 3305 
3306 3308 3347 3705 3706 3745 3709 3311 3310 
3312 3351 3710 3749 3314 3316 3355 3284 3321 
3318 3320 3357 3359 3718 3365 3322 3328 3363 
3326 3329 3332 3729 3369 3373 3330 3336 3371 
3730 3377 3335 3737 3340 3375 3342 3341 3344 
3742 3781 3383 3738 3348 3387 3746 3350 3352 
3391 3750 3354 3356 3395 3753 3358 3324 3360 
3397 3399 3362 3368 3403 3805 3366 3367 3372 
3409 3370 3376 3773 3813 3411 3380 3774 3817 
3379 3382 3384 3782 3778 3388 3786 3427 3825 
3789 3392 3431 3394 3396 3794 3361 3401 3437 
3364 3398 3400 3405 3402 3408 3407 3406 3412 
3806 3416 3451 3810 3417 3415 3420 3455 3814 
3857 3461 3419 3423 3424 3459 3425 3426 3428 
3467 3865 3430 3432 3830 3471 3435 3434 3436 
3475 3834 3873 3404 3439 3440 3479 3801 3443 
3445 3448 3483 3485 3842 3447 3452 3487 3849 
3889 3456 3493 3850 3853 3460 3495 3497 3854 
3861 3463 3464 3862 3501 3465 3468 3509 3472 
3513 3476 3515 3444 3480 3519 3881 3482 3488 
3882 3486 3489 3492 3527 3491 3496 3890 3500 
3535 3498 3502 3499 3503 3504 3541 3898 3902 
3901 3506 3507 3508 3906 3510 3511 3512 3516 
3555 3557 3517 3484 3518 3520 3559 3957 3918 
3525 3523 3528 3563 3922 3929 3532 3969 3530 
3531 3933 3536 3571 3534 3937 3540 3577 3538 
3542 3581 3539 3543 3544 3938 3942 3579 3547 
3583 3548 3587 3946 3985 3549 3550 3551 3552 
3950 3554 3556 3595 3524 3560 3958 3561 3568 
3564 3605 3965 3567 3207 3572 3966 3213 3211 
3576 3970 3973 3217 3575 3977 3215 3580 3974 
3582 3584 3978 3982 3586 3588 3625 3590 3231 
3591 3592 3990 3989 3593 3594 3596 3994 3599 
3598 3600 3998 3961 1 3608 3603 3604 41 
49 3612 3649 3616 3651 13 17 14 3620 
3615 22 3661 3618 3622 3624 3659 26 65 
3626 3628 3667 69 3632 3671 73 3673 3636 
38 77 3638 3640 3679 3639 45 42 3642 
85 3643 3648 46 3647 3652 53 50 3656 
57 3654 54 97 3655 3660 58 61 3663 
62 3664 3699 66 105 3665 3668 3707 70 
109 3672 3711 74 3675 3676 3715 113 117 
3681 3644 3680 3717 3719 125 82 3683 3688 
86 3687 89 129 3692 93 3691 90 3696 
3694 3695 94 3700 101 102 3698 3703 141 
3704 3743 106 3708 3747 149 3712 3751 114 
153 3714 3716 3755 121 81 3684 3720 3759 
3757 122 3725 3723 3721 3722 3728 126 3727 
3726 3732 130 3733 133 3731 3736 3771 3735 
3734 3740 3739 3741 138 142 3744 3779 3783 
145 3785 146 3748 3787 3752 3791 154 193 
3793 3754 3756 3724 3758 3760 3799 162 205 
3762 3763 3765 3768 3766 3767 3769 166 3772 
170 3770 3776 3811 174 3777 3775 3780 3815 
3821 221 178 3784 3823 3788 3827 3790 3829 
3792 3831 3795 3796 3833 198 201 3797 3798 
3761 3764 3800 202 3802 3803 3808 3845 206 
3807 3809 3812 3847 213 3816 217 214 3820 
3855 218 3819 222 3818 3822 3824 3826 3828 
3867 230 3869 3832 3835 234 3836 3875 277 
3837 3804 3838 3839 3840 3877 3879 3843 3848 
3885 3846 3852 3851 253 3856 3893 3891 254 
3860 258 3858 262 261 3859 3863 3864 3899 
265 3905 3866 3868 3870 3871 3872 3911 3913 
3874 3876 3915 3878 3841 3844 3880 3919 325 
3883 3888 3923 3925 286 3887 3886 3892 3896 
3931 294 3897 3894 3895 3900 3935 298 3903 
3904 3943 305 3907 3908 3947 309 3949 3909 
3910 3912 3914 3953 3916 3955 3917 3884 3920 
3959 3921 3928 3924 329 326 3926 3927 3932 
333 3930 3936 3934 334 377 3940 3941 3981 
3939 3944 381 3983 3945 3948 3987 3951 3952 
3991 3954 354 3956 3995 3993 321 358 3960 
397 3999 365 362 3601 3962 3963 3968 3967 
3607 3972 3971 3611 370 373 3976 3617 374 
3975 3980 378 3621 3979 3619 3623 3984 385 
3986 3627 3988 3631 3629 3992 33 3635 3633 
3996 3997 3964 4000 
type 1 4000 int
1 1 1 1 1 1 1 1 1 
1 1 1 1 1 1 1 1 1 
1 1 1 1 1 1 1 1 1 
1 1 1 1 1 1 1 1 1 
1 1 1 1 1 1 1 1 1 
1 1 1 1 1 1 1 1 1 
1 1 1 1 1 1 1 1 1 
1 1 1 1 1 1 1 1 1 
1 1 1 1 1 1 1 1 1 
1 1 1 1 1 1 1 1 1 
1 1 1 1 1 1 1 1 1 
1 1 1 1 1 1 1 1 1 
1 1 1 1 1 1 1 1 1 
1 1 1 1 1 1 1 1 1 
1 1 1 1 1 1 1 1 1 
1 1 1 1 1 1 1 1 1 
1 1 1 1 1 1 1 1 1 
1 1 1 1 1 1 1 1 1 
1 1 1 1 1 1 1 1 1 
1 1 1 1 1 1 1 1 1 
1 1 1 1 1 1 1 1 1 
1 1 1 1 1 1 1 1 1 
1 1 1 1 1 1 1 1 1 
1 1 1 1 1 1 1 1 1 
1 1 1 1 1 1 1 1 1 
1 1 1 1 1 1 1 1 1 
1 1 1 1 1 1 1 1 1 
1 1 1 1 1 1 1 1 1 
1 1 1 1 1 1 1 1 1 
1 1 1 1 1 1 1 1 1 
1 1 1 1 1 1 1 1 1 