# vtk DataFile Version 4.0
Generated by LAMMPS
ASCII
DATASET POLYDATA
POINTS 4000 float
4.83083 -0.763587 3.72884 6.63581 -1.19965 1.74896 4.50369 -2.77705 1.56321 
6.25885 -3.15388 3.73562 10.2605 -1.69649 1.91655 8.51626 -1.37168 3.80652 
10.6094 0.329213 3.83295 8.16389 -3.56967 1.44876 10.2917 44.0716 3.70511 
12.3324 -0.0824112 1.83992 14.1805 -2.28571 1.71168 12.3918 -2.28422 3.75974 
14.5778 -0.49802 3.83387 12.2202 -2.0971 -0.322252 16.3592 -0.876011 1.77269 
18.1141 -3.19494 1.67538 18.2589 -1.2296 3.7696 19.9083 -3.56029 3.77948 
16.1311 -2.85342 3.80327 20.3213 -1.743 1.49174 20.0912 -3.36238 -0.617904 
24.0839 -2.05278 1.83881 22.0394 -1.93091 3.75348 24.151 -0.0454041 3.77472 
22.2808 0.232145 1.81866 20.4888 0.437809 40.7567 20.3785 0.479921 3.6805 
27.9921 -2.76001 1.6525 26.3571 -0.412724 1.73351 28.2424 -0.992728 3.79475 
25.9719 -2.34234 3.80276 28.3458 -0.974966 -0.384472 26.0491 -2.39031 -0.440443 
30.2348 -1.23348 1.65797 31.9476 44.1605 1.74505 32.2158 -1.53124 3.79255 
29.9359 -3.27821 3.74287 29.9421 -3.35261 -0.352133 36.5465 -0.696656 1.71296 
34.2005 -2.24438 1.57199 36.3101 -2.41564 3.7751 34.5994 -0.138165 3.73237 
4.80238 1.19225 1.73271 6.9143 3.07969 1.68542 6.79312 1.05462 3.71826 
5.10237 3.38171 3.66779 5.07197 3.3274 -0.659907 8.85077 0.755716 1.95407 
9.06667 4.77931 1.66194 10.8811 2.4633 1.72587 8.91555 2.76223 3.94204 
11.0103 4.38457 3.95408 14.6049 1.33907 1.85721 12.9278 4.07338 1.72046 
12.7304 1.92577 3.74956 14.8902 3.48527 3.78522 15.0954 3.5044 41.066 
18.5593 0.801777 1.70838 16.7942 3.06408 1.81915 18.9271 2.95541 3.72965 
16.6021 1.13075 3.86264 18.7856 5.11929 1.60131 20.6569 2.72949 1.65118 
22.9911 4.19497 1.68529 22.6416 2.34844 3.84919 20.8882 4.70026 3.628 
22.6792 2.19566 40.8525 24.5463 1.87517 1.69983 26.8179 3.46822 1.57907 
28.6099 1.08432 1.88481 24.904 4.04697 3.72539 26.3905 1.50824 3.73789 
32.526 0.309542 1.67893 30.5219 0.632539 3.73673 30.9511 2.57238 1.83249 
28.9042 3.18632 3.79973 32.9735 2.2762 3.64046 33.1809 4.11241 1.69133 
31.1164 4.64146 3.67171 37.0532 3.60922 1.58203 34.8704 1.92611 1.68183 
36.9461 1.36973 3.82145 35.0771 3.88945 3.63278 7.32003 5.03477 3.7908 
5.29155 5.2247 1.61085 3.61643 7.80696 1.80725 5.71572 7.33361 3.86011 
7.14759 5.13705 -0.508417 7.54825 7.13314 1.57904 11.1539 6.57841 1.59283 
9.5476 8.92924 1.77143 9.18665 6.91649 3.73397 9.32271 6.66842 40.8511 
7.67729 9.17811 3.80596 11.4883 8.51028 3.65679 15.1885 5.5162 1.68806 
13.471 8.05217 1.67582 13.2497 6.00277 3.66619 15.445 7.60903 3.8918 
17.0538 7.47111 1.71929 19.4339 9.0962 1.66066 16.9185 5.20929 3.64279 
19.1192 6.97581 3.76009 17.6125 9.44151 3.72852 21.1342 6.63344 1.51971 
23.2417 8.25322 1.67434 23.2917 6.18556 3.75293 21.2492 8.83841 3.69673 
21.3803 8.73689 40.8414 23.1861 6.33533 -0.439282 25.0231 5.81502 1.69704 
27.1626 5.3407 3.51678 27.3109 7.50243 1.78982 25.4007 8.06581 3.71618 
31.4884 6.54194 1.95457 29.0787 4.9898 1.46926 31.4686 8.83455 3.67485 
29.3601 7.05566 3.75335 29.7705 8.89303 1.60374 3.31574 5.73461 3.91833 
35.1581 6.08417 1.67106 33.6735 8.50115 1.78472 33.3535 6.47953 3.82559 
35.5625 8.04304 3.84033 5.79778 9.41363 1.68651 4.25032 11.7389 1.55333 
6.07123 13.7768 1.66826 3.77698 9.93558 3.78719 5.94391 11.5303 3.68313 
6.08093 11.7013 40.9874 8.00219 11.3615 1.7791 10.2309 12.9755 1.70788 
8.19242 13.3142 3.67921 9.81381 10.9629 3.85074 11.853 10.32 1.74923 
9.84205 10.9757 40.8637 8.34765 13.3639 -0.419598 13.9132 12.3411 1.56931 
13.8495 10.0431 3.69317 12.1306 12.9542 -0.38255 15.6245 9.79496 1.51684 
12.0364 12.5308 3.70193 13.6689 10.3087 41.0159 15.9248 11.8557 -0.254777 
16.0489 11.8129 3.69819 17.7958 11.3164 1.67163 19.7069 11.1537 3.69932 
17.9762 13.5372 3.77288 20.074 12.9743 1.74612 17.5145 9.49392 40.8561 
21.6914 10.7639 1.48944 23.6107 10.4061 3.68308 24.0189 12.3232 1.3761 
22.1208 12.8129 3.50608 23.694 10.2467 40.8364 21.924 12.9436 40.8017 
25.5759 9.98696 1.75516 27.9791 11.2945 1.55868 26.202 11.8824 3.69824 
27.7334 9.56109 3.7845 32.0697 10.7975 1.51953 30.1662 13.3044 1.72733 
32.1768 12.8459 -0.508043 29.9243 11.0398 3.7093 32.1736 12.855 3.80135 
35.8267 10.2036 1.69498 34.121 12.4565 1.70318 33.8292 10.5732 3.62495 
36.1112 12.2313 3.6363 4.16917 14.2321 3.85525 4.35944 16.0692 1.80272 
6.66709 17.7133 1.69819 6.51274 15.7918 3.67803 8.55114 15.2206 1.74683 
10.6075 17.2349 1.59293 10.3058 14.8936 3.75296 8.85198 17.2647 3.69544 
8.61257 17.4584 40.8986 12.3109 14.8032 1.74346 14.4167 16.3787 1.61853 
14.2394 14.3525 3.58889 12.5419 16.7215 3.73964 15.9598 13.9007 1.57341 
18.3237 15.7034 1.86339 18.6921 17.6976 3.81328 16.3789 15.9795 3.80894 
22.2472 14.8218 1.56301 20.8171 17.1667 1.71533 24.678 16.379 1.55889 
20.3769 15.1256 3.54447 22.7167 16.6978 3.68591 24.4294 14.2163 3.6397 
28.0982 13.6899 3.62757 26.4109 13.8728 1.55551 26.5434 15.9312 3.52654 
28.5719 15.7505 1.57469 28.9234 17.7291 3.71563 28.9477 17.5839 -0.547787 
32.4254 14.7968 1.75023 30.7999 17.2842 1.47286 32.5619 16.9739 40.6923 
30.5903 15.3239 3.70866 32.6149 17.0023 3.80159 30.4602 15.2125 -0.591998 
36.2709 14.4232 1.92337 34.4669 16.5034 1.46018 36.3587 16.6188 3.69545 
34.4466 14.7273 3.81776 4.92273 20.0673 1.45275 6.99381 19.815 3.76921 
5.16836 22.146 3.71959 7.25003 21.7578 1.55899 4.9463 18.1043 3.72807 
5.11341 22.1931 -0.510621 6.82068 19.7427 40.7665 8.98908 19.4186 1.63725 
11.1031 20.9561 1.56754 10.8929 18.9255 3.69614 9.12605 21.3708 3.76832 
9.30354 21.4904 40.7343 12.883 18.7545 1.5129 15.1221 20.4082 1.56922 
14.5954 18.5304 3.48084 13.0653 20.7008 3.66132 14.7923 18.378 -0.593866 
16.68 18.0615 1.6663 19.0212 19.5287 1.69148 19.3489 21.5208 3.46344 
17.1491 22.0383 1.6056 16.9525 19.962 3.82286 23.0418 18.7026 1.49513 
21.0556 19.0562 3.74222 21.1842 21.0945 1.52631 23.1341 20.6791 3.6408 
26.9749 17.9007 1.70078 25.1522 20.3464 1.52465 27.4412 21.7812 1.59968 
24.7658 18.4784 3.61182 27.1881 19.9665 3.67165 24.9029 18.1819 40.9298 
29.0872 19.7065 1.52085 30.8675 19.4572 40.8186 31.2557 21.6003 1.65051 
29.2368 21.8586 -0.566307 32.774 19.0708 1.66213 31.0508 19.5834 3.62443 
29.1891 21.953 3.88923 33.0822 21.3069 3.62083 36.9433 20.3277 -0.594552 
36.7069 18.4586 1.68591 34.7258 18.7171 40.8616 35.0533 20.7868 1.71312 
36.8544 20.3715 3.85065 34.6953 18.8624 3.68771 33.0621 21.1809 40.769 
5.56198 24.1784 1.61721 5.85877 26.1106 3.62349 7.46169 23.7767 -0.501054 
3.57759 24.4694 3.62564 3.85093 26.6516 1.55934 3.483 24.6469 -0.510077 
7.79356 25.8025 1.78154 7.43823 23.8128 3.67277 9.41884 23.3632 1.61468 
11.3522 22.9347 3.45866 11.6881 25.0153 1.67008 9.52413 25.4664 3.91837 
9.77216 25.3808 40.8864 11.4305 23.1272 40.8923 15.4022 22.3515 3.82696 
13.4512 22.5861 1.48331 15.6337 24.3042 1.46871 13.6505 24.5697 3.43658 
17.9087 25.803 1.57381 19.5316 23.6218 1.43681 17.6743 23.8664 3.66448 
19.9537 25.4985 3.67441 23.4342 22.5928 1.60789 21.6497 25.3616 1.38762 
21.6434 23.1508 3.48497 23.9115 24.9619 3.64747 23.5843 25.0336 -0.48837 
21.5551 23.0566 -0.386156 25.3062 22.2594 3.61338 25.5938 24.3495 1.68916 
27.6049 24.0705 41.0508 27.6189 26.308 1.66088 27.4835 24.2231 3.7176 
25.9992 26.5515 3.8162 29.6055 23.7528 1.96598 31.3164 23.503 40.9326 
31.5108 25.5291 1.56344 31.5178 23.4927 3.9551 29.58 26.0406 3.75176 
29.7215 25.938 40.8333 37.1408 22.4068 1.42915 33.2813 23.268 1.52142 
35.6015 24.9344 1.52149 35.2329 22.8843 3.66771 33.6646 25.2476 3.72191 
35.08 22.9486 40.8897 33.3558 25.224 -0.521589 6.08873 28.3045 1.56023 
4.32762 30.5721 1.57565 4.12205 28.5559 3.64974 6.31341 30.2737 3.54344 
6.37822 30.169 40.7858 8.09297 28.0402 3.66321 10.0038 27.3533 1.56402 
8.33086 29.7514 1.67933 10.3413 29.4271 3.74336 12.0768 27.0193 3.60388 
8.0458 27.6968 -0.537963 13.9161 26.817 1.57421 15.9039 26.3142 3.62736 
12.3039 29.0898 1.58701 16.277 28.1453 1.66451 14.1551 28.7366 3.64895 
16.4699 30.285 -0.325448 18.4425 30.0389 1.68023 20.2756 27.7162 1.77306 
16.5728 30.1864 3.63542 18.2683 27.7718 3.60004 20.5134 29.5636 3.88934 
20.3435 29.5622 -0.257077 24.0258 26.8165 1.56782 22.4414 29.2214 1.64311 
24.3337 28.946 40.8136 24.2493 29.0283 3.71133 22.2923 27.2459 3.72516 
22.0473 27.3464 -0.441579 25.8459 26.4492 40.7352 26.2612 28.6481 1.46576 
27.997 28.4658 40.6289 26.4896 30.8337 40.8167 28.3271 30.3745 1.72222 
28.0944 28.4726 3.67639 26.2947 30.5693 3.7663 29.8689 27.8904 1.56713 
32.0211 29.5769 1.51382 31.8568 27.6392 3.70779 30.2455 30.0644 3.64551 
31.9126 27.6314 40.8448 30.1916 30.1805 40.7692 33.7533 27.1217 1.63505 
35.8733 28.9901 1.65193 35.6723 26.9286 3.68675 34.1324 29.3234 -0.48749 
33.9998 29.2728 3.76076 36.2133 31.0703 40.7371 6.65969 32.186 1.56523 
4.84526 34.5266 1.49949 4.62273 32.6814 3.7622 6.98242 34.1285 3.45626 
4.56311 32.5467 40.8275 10.7411 31.319 1.56819 9.05669 33.687 1.6304 
8.62232 31.8796 3.65015 10.9103 33.2845 3.71217 14.4887 30.7136 1.51153 
12.9871 32.9762 1.58734 14.8061 32.6367 -0.538744 15.0321 34.6035 1.68858 
13.1798 35.0446 3.5275 12.4847 31.0068 3.78485 14.8248 32.4605 3.55588 
16.6565 32.4354 1.70701 18.9742 34.0536 1.7822 17.0093 34.4066 3.87205 
18.9074 31.8509 3.69494 18.5644 31.8784 -0.399678 22.5581 31.165 3.67504 
24.52 31.0319 1.61081 22.4982 31.3641 40.9783 20.6855 31.4643 1.67214 
22.8509 33.3054 1.49988 20.8228 33.8373 -0.0718209 20.9737 33.6604 3.51291 
22.9627 35.4836 40.8911 26.7217 32.7167 1.52064 24.6344 33.1014 -0.481696 
24.894 35.3773 1.5206 28.2659 32.557 3.76063 24.6135 32.9564 3.53234 
26.7605 34.9476 3.72808 26.8865 34.8736 40.9573 28.7259 32.4755 40.8317 
28.903 34.254 1.69043 30.7243 31.9411 1.47535 32.4556 31.815 -0.547406 
30.9292 33.8235 3.64036 32.8517 33.595 1.6531 32.4816 31.618 3.67496 
30.891 34.2269 40.817 34.2732 31.2044 1.64454 36.5087 32.9174 1.44311 
34.7087 33.4385 3.57912 36.0783 30.9956 3.74447 36.8237 35.0534 3.74545 
34.541 33.3961 40.937 7.33574 36.2438 1.61782 5.5162 38.6137 1.60547 
5.32749 36.3934 3.55986 3.64105 38.9067 3.65065 7.47567 38.2682 3.48457 
[...]
POINT_DATA 4000
FIELD FieldData 6
id 1 4000 int
405 7 3 766 11 409 410 372 770 
16 15 413 414 13 20 19 418 421 
417 24 21 28 422 465 63 61 461 
32 67 469 426 30 26 36 35 434 
430 33 4 40 401 438 8 47 406 
445 45 12 52 51 449 450 55 56 
453 454 54 59 60 458 457 99 64 
103 462 501 62 68 72 71 505 466 
75 473 76 470 477 80 474 43 79 
402 441 446 48 83 485 46 87 91 
92 489 89 486 490 95 96 493 494 
100 139 497 498 537 104 108 502 541 
102 105 107 509 112 506 115 111 517 
513 116 442 44 119 478 481 88 123 
128 482 525 125 127 132 526 529 131 
129 126 136 533 130 135 530 133 134 
534 140 538 577 144 137 143 545 148 
542 145 142 147 151 549 510 120 155 
157 514 557 84 159 518 521 522 163 
168 565 167 172 569 566 166 171 176 
573 570 175 179 578 574 183 184 187 
581 585 546 553 152 550 156 593 193 
160 195 197 554 597 154 124 199 561 
558 203 605 602 208 562 202 205 207 
212 609 606 206 211 215 613 610 174 
180 219 621 220 617 188 582 223 586 
191 192 231 589 590 186 196 194 235 
233 200 594 633 637 201 164 198 239 
601 598 237 243 642 245 641 244 241 
248 645 247 649 251 646 249 210 614 
216 255 653 259 224 618 622 227 228 
625 626 226 222 629 232 230 271 630 
669 236 234 275 634 673 273 204 240 
279 638 677 238 277 283 284 681 682 
285 685 252 287 689 650 246 256 657 
291 260 654 297 264 263 658 661 662 
262 267 268 266 666 665 265 269 272 
270 309 311 670 709 276 315 674 713 
274 313 280 319 678 317 717 318 288 
323 721 725 282 292 327 686 690 295 
296 294 300 694 693 697 299 304 698 
701 301 705 307 305 303 308 302 702 
345 312 306 347 710 706 749 349 310 
351 316 314 753 355 714 353 320 359 
757 718 758 357 328 363 722 761 726 
322 365 361 331 332 729 733 335 340 
734 737 334 339 344 738 741 745 343 
348 342 742 785 385 352 389 387 346 
746 789 356 391 350 750 793 393 354 
754 324 395 360 797 399 358 368 364 
762 765 367 336 730 371 769 773 369 
375 376 774 777 380 379 384 778 381 
781 23 383 388 382 782 425 27 392 
429 786 29 31 396 790 433 390 437 
794 39 400 798 397 398 407 768 805 
1166 411 810 809 772 1170 416 415 814 
813 420 419 817 821 818 424 463 822 
428 865 432 467 869 826 471 436 830 
873 403 440 801 838 806 408 447 845 
412 451 849 452 850 455 456 853 854 
459 460 857 858 499 464 503 861 901 
862 468 507 905 866 472 475 476 909 
877 870 443 404 479 841 802 846 448 
483 885 842 487 492 886 491 890 889 
495 496 894 893 897 500 898 539 941 
504 543 902 508 512 906 945 511 480 
917 913 874 515 444 519 878 881 488 
882 523 925 528 527 532 926 929 535 
531 536 933 930 937 540 579 934 938 
977 544 548 942 981 516 547 910 949 
520 555 957 914 484 918 559 921 922 
563 965 568 567 572 969 966 571 576 
973 970 575 580 974 1017 583 584 978 
946 985 552 551 953 950 556 993 560 
595 954 997 524 599 958 961 962 603 
1005 1002 608 607 612 1006 1009 611 1010 
616 1013 615 619 620 1014 1021 588 587 
986 982 591 989 592 631 990 596 635 
994 1033 600 1001 564 639 998 1037 643 
1041 1042 1045 604 644 647 648 1049 652 
1046 651 655 1053 1050 1057 623 624 1022 
1018 627 628 1025 1026 1029 632 1030 671 
636 675 1034 1073 640 679 1038 1077 683 
684 1081 1082 687 688 1085 1086 1089 691 
656 660 1054 659 664 1061 1058 663 1062 
667 1065 668 1066 707 1069 672 1109 1070 
711 676 715 1113 1074 680 719 1078 1117 
1118 723 724 1121 1122 692 727 1125 1090 
695 700 1097 1093 699 704 1098 1101 703 
708 1102 1105 712 1106 747 1149 1110 751 
716 1153 1114 755 759 720 1157 1158 728 
763 1161 1126 1198 696 731 1133 1129 1094 
735 1137 740 1134 739 744 1141 1138 1145 
743 748 1142 752 1146 787 1189 756 791 
1150 1193 1154 795 799 760 800 1197 767 
764 732 1162 1165 736 1130 1169 771 1173 
775 776 1174 1177 780 779 1178 784 1181 
1185 783 423 788 1182 825 427 792 829 
1186 431 796 1190 833 834 439 435 1194 
837 803 807 1202 1205 811 1210 1209 1172 
1570 816 815 1213 1214 820 819 1218 1217 
1221 824 828 863 1222 1261 1265 832 867 
1226 1269 871 836 1230 1234 875 840 804 
1238 1277 1206 808 847 1245 812 851 852 
1249 1250 855 856 1254 1253 859 860 1257 
1258 899 864 903 1262 1301 868 872 907 
1266 1305 876 1270 1273 1313 1274 843 879 
880 1241 1278 1246 848 883 1285 887 1242 
891 892 1289 1286 1290 1293 895 896 1294 
1297 900 939 1298 904 943 1302 1341 908 
912 1309 1306 911 915 1310 1314 844 919 
1281 1317 888 923 928 1325 1282 927 932 
1326 1329 935 931 1330 936 1333 940 979 
1337 1334 1338 1377 944 948 1345 1342 947 
951 1349 1346 916 920 955 1357 1353 884 
1318 959 1321 1322 963 1365 968 1362 1369 
967 972 1366 971 976 1370 1373 975 980 
1374 1378 1381 983 984 1382 1385 1350 987 
952 956 1389 1393 960 1354 995 1397 924 
1361 999 1358 1003 1405 1402 1008 1007 1012 
1406 1409 1011 1016 1410 1413 1015 1019 1020 
1417 1418 988 1023 1421 1425 991 992 1390 
1031 1386 996 1035 1394 1433 1000 1437 1401 
964 1039 1398 1043 1044 1441 1442 1445 1047 
1048 1449 1446 1052 1414 1055 1051 1453 1454 
1024 1059 1457 1461 1027 1028 1426 1422 1429 
1032 1071 1430 1036 1075 1473 1434 1004 1040 
1079 1438 1477 1083 1084 1481 1482 1087 1088 
1485 1489 1450 1091 1056 1095 1493 1060 1064 
1063 1458 1497 1462 1067 1465 1068 1466 1469 
1072 1470 1509 1111 1076 1115 1513 1474 1080 
1119 1517 1478 1518 1123 1124 1521 1525 1092 
1127 1486 1529 1096 1100 1533 1494 1490 1099 
1498 1501 1104 1107 1505 1103 1108 1502 1506 
1112 1147 1549 1510 1151 1116 1553 1155 1514 
1120 1159 1160 1557 1558 1128 1163 1565 1522 
1561 1131 1132 1136 1530 1526 1135 1534 1140 
1537 1139 1144 1538 1541 1545 1143 1148 1542 
1585 1152 1589 1187 1546 1550 1156 1191 1593 
1195 1199 1200 1554 1597 1168 1164 1201 1562 
1167 1171 1573 1566 1569 1176 1175 1574 1180 
1577 1179 1184 1581 1578 1183 823 1188 1225 
1582 827 1192 1586 1229 831 1196 1233 1590 
1237 839 835 1594 1598 1208 1204 1641 1602 
1610 1207 1211 1606 1216 1215 1614 1613 1220 
1219 1618 1617 1224 1228 1263 1661 1622 1665 
1267 1232 1630 1626 1236 1235 1634 1275 1633 
1240 1279 1677 1638 1247 1243 1642 1645 1646 
1212 1649 1251 1252 1650 1653 1255 1256 1654 
1259 1260 1658 1657 1264 1303 1701 1662 1271 
1268 1272 1669 1666 1276 1670 1673 1674 1315 
1244 1280 1717 1678 1248 1283 1685 1681 1287 
1291 1689 1292 1686 1690 1295 1296 1694 1693 
1299 1697 1300 1339 1698 1737 1304 1308 1705 
1702 1307 1312 1709 1706 1311 1316 1351 1713 
1710 1753 1319 1320 1714 1718 1288 1682 1323 
1725 1328 1729 1327 1332 1726 1331 1730 1336 
1733 1335 1734 1340 1344 1741 1738 1739 1343 
1348 1745 1742 1743 1347 1352 1749 1746 1355 
1356 1750 1754 1284 1721 1359 1757 1363 1368 
1762 1722 1765 1367 1769 1372 1766 1371 1376 
1773 1770 1375 1379 1778 1380 1777 1781 1384 
1383 1785 1782 1388 1789 1387 1391 1786 1360 
1395 1797 1793 1790 1324 1758 1399 1761 1403 
1805 1802 1408 1407 1412 1806 1809 1807 1411 
1415 1813 1774 1814 1419 1420 1817 1818 1423 
1424 1821 1822 1392 1427 1431 1825 1829 1826 
1396 1794 1435 1833 1400 1364 1801 1798 1439 
1837 1443 1444 1842 1841 1845 1451 1447 1448 
1810 1849 1416 1455 1853 1459 1460 1857 1858 
1428 1463 1861 1865 1432 1830 1471 1867 1436 
1475 1873 1834 1404 1440 1479 1838 1877 1483 
1484 1881 1885 1452 1487 1846 1889 1854 1456 
1491 1850 1893 1496 1890 1495 1464 1499 1894 
1901 1897 1467 1468 1866 1862 1507 1869 1472 
1870 1511 1909 1476 1874 1913 1515 1480 1519 
1878 1918 1917 1488 1523 1882 1925 1492 1527 
1929 1886 1531 1535 1933 1930 1500 1504 1898 
1937 1905 1503 1508 1902 1906 1512 1547 1949 
1910 1516 1555 1914 1551 1953 1520 1559 1957 
1921 1528 1563 1922 1965 1961 1532 1567 1571 
1926 1969 1536 1540 1934 1973 1539 1941 1544 
1938 1945 1543 1548 1942 1985 1946 1552 1587 
1989 1950 1556 1591 1993 1954 1560 1524 1595 
1599 1958 1203 1564 1962 1601 1968 1609 1568 
1572 1605 1966 1970 1575 1576 1974 1977 1580 
1621 1579 1978 1584 1981 1583 1223 1588 1625 
1982 1227 1592 1629 1986 1231 1596 1994 1990 
1997 1239 1600 1998 1637 1604 1643 2041 2002 
2043 2004 2042 1608 1612 2045 2008 2047 2049 
1647 2048 1616 2014 1615 2010 2016 2051 2017 
1620 1619 2018 2021 2020 2019 1624 1628 1663 
2061 2022 2024 2028 2027 1632 1631 2030 2026 
2029 2032 2031 1636 1635 1675 2033 2034 2035 
2075 2036 1640 1679 2038 2077 2040 2079 1648 
1644 2044 2083 2081 2119 1651 1652 2050 2046 
2052 2087 2085 1655 1656 2053 2054 2055 2056 
1660 1659 1699 2059 2057 2058 2060 2064 1664 
1668 2065 2062 2063 2068 1667 1671 1672 2069 
2066 2067 2072 2071 2070 1676 2073 2074 2076 
2113 1715 1680 1719 2115 2078 2117 2080 1683 
1684 2082 2084 2118 2159 2123 1687 2089 1692 
2086 1691 2088 2091 2092 2090 1695 1696 2093 
2094 2095 2096 1700 1704 2097 2101 2099 2104 
1703 1708 2105 2102 2103 2108 1707 1712 2109 
2106 2107 2112 2111 1711 1716 2110 2116 2153 
2151 1720 1755 2114 2120 2157 1688 1723 2125 
1728 2121 2122 2128 2129 1727 1732 2126 2127 
2132 1731 2133 1736 2130 2131 2135 1735 2098 
2100 2137 1744 2138 2141 2139 2144 1748 2145 
2142 2143 2148 1747 1752 2149 2146 2147 2152 
2189 1751 1756 1791 2150 2156 2193 2191 1759 
1760 2158 2154 2160 2195 2165 1763 1768 2162 
2168 1767 2169 1772 2166 2167 2171 1771 1775 
2134 2173 2136 2175 2140 1740 1779 2177 2178 
1780 2179 2180 2181 1783 1784 2184 2185 2183 
2182 2188 1788 1787 1792 2187 2186 2192 1827 
2229 1795 1796 2190 2196 2194 1724 1799 2161 
2199 2197 2200 2205 1803 1808 2202 2207 2203 
2204 1811 2170 2172 2209 2211 1776 1815 2213 
2174 2176 2215 1819 1820 2218 2217 2219 2220 
1823 1824 2221 2222 2223 2224 2227 1828 1832 
2225 2228 2226 2267 1831 1835 2232 2233 2230 
2236 2235 2201 1764 1800 2198 2237 1839 2164 
2239 1804 1843 1844 2241 2208 2245 2243 2206 
1847 1812 1851 2210 2249 2212 2251 2247 1816 
1855 2214 2253 2254 2216 2255 1859 1860 2257 
2258 2259 2260 1863 1864 2261 2263 2264 2262 
1871 2265 2269 2272 2266 2268 1836 2234 1875 
2273 2271 2275 1840 2238 2277 1879 2240 2279 
1848 1883 2285 2242 2283 2248 1852 1887 2246 
2289 2252 2287 2250 1856 1891 1896 2293 2291 
2256 2296 2295 1899 1895 1900 2294 2297 2299 
2300 1868 1903 2301 2298 2303 2305 2304 1872 
2270 2309 1911 2311 2307 1907 2308 1876 2274 
1915 2313 2276 2315 2278 1880 1919 2317 2244 
2280 2281 1888 1923 2325 2282 2288 1892 1927 
2329 2286 2292 2327 2290 1931 1936 2333 2331 
2336 2330 1935 1939 2335 2337 2334 2340 1904 
1908 2339 2302 2341 2343 1912 2306 1947 2349 
2310 2312 2347 1951 2351 1916 1955 2314 2353 
2316 2320 1884 1920 2321 2318 2284 2359 1928 
1963 2365 2322 2328 2363 2361 1932 1967 1972 
2326 2332 2369 2367 2372 1975 1971 2373 2370 
2371 2376 1940 1944 2338 2377 2375 2379 1943 
2345 1948 2342 2385 2344 2348 1952 2346 1987 
2389 2352 2387 1956 1991 2350 2354 2355 2356 
2357 1959 1960 1924 1999 2358 2324 2399 2397 
2360 1603 1964 2362 2001 2003 2364 2006 2005 
1607 2366 2368 2007 1611 2009 1976 1980 2012 
2013 2015 2374 2011 1979 2381 1984 2378 2380 
2384 1983 1623 1988 2382 2025 2383 2023 2388 
1627 1992 2386 2390 2392 2391 1995 1996 2393 
2394 2395 2396 1639 2000 2398 2037 2039 2400 
2402 2441 2404 2443 2445 2408 2447 2446 2448 
2449 2451 2452 2453 2414 2418 2420 2419 2423 
2422 2425 2428 2427 2429 2430 2426 2432 2431 
2434 2433 2436 2435 2475 2477 2438 2440 2479 
2481 2442 2444 2483 2519 2482 2485 2487 2489 
2488 2454 2450 2455 2456 2424 2461 2457 2459 
2464 2465 2462 2463 2468 2469 2466 2467 2472 
2471 2470 2473 2474 2476 2513 2515 2517 2478 
2480 2521 2484 2518 2559 2524 2525 2523 2486 
2492 2491 2490 2493 2497 2460 2495 2458 2501 
2499 2504 2502 2505 2503 2508 2509 2506 2507 
2512 2510 2511 2516 2553 2551 2155 2514 2555 
2520 2557 2124 2522 2558 2599 2528 2561 2526 
2529 2527 2531 2533 2494 2496 2535 2537 2500 
2498 2541 2539 2544 2545 2542 2543 2548 2546 
2549 2547 2552 2593 2550 2556 2591 2554 2597 
2595 2560 2163 2565 2563 2567 2562 2569 2530 
2532 2571 2534 2573 2536 2575 2538 2540 2577 
2578 2579 2581 2585 2582 2584 2583 2589 2588 
2587 2586 2592 2231 2629 2633 2590 2596 2631 
2598 2594 2635 2600 2566 2605 2568 2607 2570 
2609 2572 2611 2613 2614 2574 2576 2615 2580 
2617 2618 2619 2620 2621 2623 2624 2622 2625 
2626 2628 2627 2667 2630 2632 2636 2669 2671 
2637 2634 2601 2564 2639 2602 2603 2645 2608 
2643 2606 2610 2649 2612 2647 2651 2653 2654 
2616 2655 2658 2657 2659 2660 2661 2663 2664 
2662 2666 2665 2668 2707 2705 2673 2670 2675 
2672 2638 2677 2604 2640 2685 2642 2648 2683 
2646 2689 2652 2687 2656 2650 2693 2691 2696 
2695 2694 2697 2699 2700 2701 2698 2703 2704 
2702 2743 2706 2709 2711 2708 2713 2674 2676 
2680 2681 2641 2678 2679 2644 2323 2682 2725 
2688 2723 2729 2686 2692 2727 2733 2690 2731 
2736 2730 2734 2735 2737 2740 2739 2738 2741 
2744 2742 2745 2749 2710 2712 2747 2714 2716 
2717 2715 2720 2319 2718 2719 2721 2684 2759 
2722 2765 2728 2763 2761 2726 2769 2732 2767 
2772 2773 2771 2776 2770 2777 2774 2775 2780 
2785 2781 2779 2748 2783 2750 2746 2752 2751 
2753 2754 2755 2756 2757 2724 2758 2760 2799 
2762 2401 2403 2764 2406 2405 2766 2768 2407 
2409 2410 2413 2412 2411 2416 2417 2778 2415 
2784 2421 2786 2782 2788 2787 2789 2790 2792 
2791 2794 2793 2795 2796 2797 2437 2798 2439 
2800 2841 2802 2804 2843 2846 2845 2808 2847 
2849 2853 2851 2816 3182 2821 2814 2820 2819 
2825 2822 2828 2823 2827 2826 2830 2829 2832 
2831 2834 2833 2836 2875 2835 2877 2838 2840 
2879 2881 2842 2844 2883 2882 2885 2848 2852 
2887 2893 2850 2857 2856 2855 2861 2824 2818 
2859 2862 2865 2863 2868 2866 2869 2871 2867 
2872 2870 2873 2876 2913 2874 2917 2915 2878 
2880 2919 2918 2921 2884 2959 2923 2888 2889 
2886 2891 2892 2890 2897 2854 2860 2895 2864 
2858 2901 2899 2904 2905 2902 2903 2908 2909 
2906 2907 2912 2953 2910 2911 2916 2914 2957 
2955 2920 2958 2925 2924 2928 2926 2929 2927 
2931 2894 2896 2933 2900 2935 2898 2941 2937 
2939 2944 2945 2942 2943 2948 2949 2946 2947 
2952 2950 2993 2951 2956 2991 2954 2997 2995 
2960 2961 2922 2965 2963 2967 2930 2969 2932 
2971 2934 2973 2936 2975 2938 2977 2978 2940 
2979 2980 2981 2985 2982 2983 2984 2989 2988 
2986 2987 2992 3029 3033 2990 2996 3031 2994 
2999 2998 3000 2966 3005 2968 3007 2970 3009 
2972 3011 2974 3013 2976 3015 3017 3018 3019 
3020 3021 3022 3023 3024 3025 3026 3027 3028 
3067 3069 3030 3032 3036 3035 2962 2964 3037 
3039 3034 3003 3045 3002 3008 3006 3010 3049 
3012 3051 3047 3014 3053 3054 3016 3055 3057 
3058 3059 3060 3062 3061 3063 3064 3066 3065 
3068 3072 3105 3071 3073 3075 3070 3001 3038 
3004 3040 3043 3085 3042 3048 3083 3089 3046 
3052 3087 3050 3056 3093 3091 3096 3094 3098 
3095 3097 3099 3100 3101 3102 3103 3104 3108 
3109 3107 3111 3106 3074 3076 3077 3080 3041 
3078 3081 3079 3044 3082 3125 3088 3123 3086 
3129 3092 3127 3090 3133 3131 3136 3134 3137 
3135 3140 3138 3139 3141 3143 3110 3112 3145 
3113 3147 3116 3117 3114 3115 3120 3121 3118 
3119 3084 3159 3122 3128 3163 3161 3165 3124 
3132 3126 3169 3167 3130 3173 3170 3171 3176 
3177 3174 3175 3179 3142 3144 3181 3146 3148 
3149 3150 3152 3151 3153 3154 3155 3156 3157 
3160 3158 3199 2801 3162 2803 3164 3172 2806 
3166 2805 3168 2807 2809 2810 2813 2812 2811 
2815 2817 3178 3180 3184 3183 3186 3185 3188 
3187 3189 3190 3192 3191 3193 3194 3195 3196 
3197 2837 3198 2839 3200 3241 3202 3204 3243 
3245 3249 3208 3212 3210 3214 3216 3215 3221 
3217 3218 3220 3219 3225 3224 3228 3227 3226 
3222 3230 3229 3232 3231 3234 3233 3236 3235 
3275 3238 3277 3240 3279 3242 3281 3248 3244 
3247 3246 3251 3252 3250 3254 3255 3253 3256 
3257 3261 3259 3260 3264 3262 3265 3263 3268 
3269 3266 3267 3272 3271 3273 3270 3274 3313 
3276 3278 3317 3280 3319 3315 3318 3285 3283 
3282 3284 3287 3286 3289 3292 3291 3290 3297 
3293 3295 3296 3258 3301 3299 3304 3302 3305 
3303 3308 3309 3306 3307 3312 3353 3310 3311 
3316 3314 3357 3355 3320 3288 3325 3321 3323 
3328 3329 3326 3327 3332 3333 3294 3331 3335 
3300 3337 3298 3341 3339 3338 3344 3345 3342 
3343 3348 3349 3346 3347 3352 3393 3350 3351 
3356 3391 3354 3359 3358 3360 3322 3365 3363 
3368 3362 3330 3367 3371 3369 3334 3373 3336 
3375 3377 3378 3340 3379 3380 3382 3381 3383 
3384 3385 3389 3386 3388 3387 3392 3390 3395 
3396 3394 3324 3397 3361 3399 3366 3405 3403 
3407 3370 3409 3372 3411 3374 3414 3413 3376 
3415 3417 3418 3419 3420 3421 3422 3423 3424 
3425 3426 3427 3428 3432 3429 3433 3431 3430 
3435 3400 3364 3398 3437 3401 3439 3404 3445 
3406 3402 3408 3443 3410 3449 3412 3451 3447 
3453 3454 3416 3455 3457 3458 3459 3460 3461 
3462 3463 3464 3465 3469 3467 3471 3434 3436 
3475 3473 3438 3440 3477 3479 3442 3485 3448 
3483 3446 3489 3452 3487 3456 3450 3493 3490 
3491 3496 3495 3494 3498 3497 3499 3500 3501 
3468 3503 3505 3466 3470 3472 3509 3511 3513 
3474 3476 3515 3441 3481 3478 3444 3480 3525 
3482 3488 3523 3486 3529 3492 3527 3533 3531 
3536 3534 3537 3539 3535 3507 3502 3541 3504 
3508 3506 3549 3512 3547 3510 3517 3514 3551 
3516 3520 3518 3521 3484 3519 3559 3522 3561 
3528 3563 3565 3569 3526 3532 3567 3572 3530 
3573 3570 3571 3575 3538 3540 3577 3544 3545 
3542 3543 3548 3585 3550 3546 3552 3587 3557 
3554 3553 3555 3556 3558 3524 3560 3599 3201 
3562 3203 3564 3206 3205 3566 3568 3207 3209 
3574 3213 3211 3576 3580 3581 3579 3578 3584 
3583 3586 3582 3223 3588 3590 3589 3591 3592 
3594 3593 3595 3596 3237 3598 3597 3239 3600 
2 5 3602 3641 3608 3604 9 10 3610 
3606 3611 3607 370 14 3613 3614 3616 3615 
17 18 3618 3617 3620 3619 3621 22 65 
3622 3624 3628 3663 3626 3661 3630 3629 3632 
3631 34 3634 3633 3636 3635 3675 38 77 
3638 3677 3640 3679 6 3645 3642 3643 3647 
49 3612 3650 50 3649 3652 3651 53 3654 
3653 3655 3656 58 57 3658 3657 3659 3660 
101 3662 3665 3664 3668 69 66 3669 3666 
3667 3672 3671 73 74 3674 3673 3670 70 
3676 41 78 3678 3717 3715 3644 3680 85 
3646 3648 3681 3685 3683 3687 86 3689 3692 
3691 90 3690 94 93 3694 3693 3695 3696 
97 98 3699 3701 3697 3700 3704 3705 3702 
3703 3708 109 3709 3706 3707 106 3712 110 
113 114 3713 3753 3710 3711 3716 3751 42 
81 117 3714 3718 3719 3720 82 3682 3725 
3688 3723 3728 3686 3726 3729 3727 3732 3731 
3730 3733 3735 3736 138 141 3738 3698 3737 
3741 3739 3744 3745 3742 3743 3748 3749 3746 
149 3747 146 3752 153 3750 3754 3755 3756 
121 118 3721 3757 3684 3759 122 3765 165 
3722 3763 3768 3762 162 169 3769 3766 3767 
3772 170 3734 173 3773 3771 3775 178 3777 
3778 3740 177 3779 3780 185 3785 3781 3782 
181 3783 182 3784 3788 150 189 3789 3786 
3787 3791 3793 3760 3790 3795 3797 158 161 
3758 3724 3761 3799 3802 3805 3803 3808 3804 
209 3770 3809 3807 3811 213 3813 3774 3776 
3815 217 3818 3817 3819 218 3820 221 225 
3821 3822 3823 3824 190 3825 3792 3829 3827 
3831 3794 3796 3833 3835 3800 3764 3798 3801 
3837 3839 3845 3841 242 3843 3844 3806 3849 
3810 3812 3851 3847 214 253 254 3814 3853 
3854 3816 3855 261 3857 3858 257 3859 3860 
3861 3828 3865 3863 229 3826 3830 3832 3871 
3869 3834 3836 3873 3875 278 3877 3838 3840 
3879 281 3842 3885 3848 3883 289 3889 3846 
3852 3887 293 250 3850 3893 3856 3891 3896 
3895 258 3897 3894 3899 3864 3901 3867 3862 
3868 3866 3870 3872 3909 3911 3874 3913 3876 
3915 3917 3878 3880 3919 3881 3925 3882 3888 
325 3923 329 286 3929 3886 3892 3927 290 
3890 3933 3931 3935 298 3898 3937 3900 3904 
3907 3905 3902 3903 3908 3949 3906 3912 3947 
3910 3914 3953 3916 3951 3955 3921 3884 3918 
3920 321 3959 3922 3961 3928 3963 3965 330 
326 3926 3969 3932 3967 3971 333 337 3930 
3934 3973 3936 3940 338 341 3938 3939 3944 
3941 3945 3943 3985 3942 3948 3946 3989 3952 
3987 3954 3950 3956 3991 3957 3958 3924 3960 
3999 1 3601 3962 3603 362 3964 366 3605 
3966 3968 3609 3972 374 373 377 3970 3975 
3976 3974 3977 3980 378 3978 3981 3979 3984 
25 3983 3625 3982 3623 3988 386 3990 3986 
3627 3992 394 3993 3994 3995 3996 37 3637 
3998 3997 3639 4000 
type 1 4000 int
1 1 1 1 1 1 1 1 1 
1 1 1 1 1 1 1 1 1 
1 1 1 1 1 1 1 1 1 
1 1 1 1 1 1 1 1 1 
1 1 1 1 1 1 1 1 1 
1 1 1 1 1 1 1 1 1 
1 1 1 1 1 1 1 1 1 
1 1 1 1 1 1 1 1 1 
1 1 1 1 1 1 1 1 1 
1 1 1 1 1 1 1 1 1 
1 1 1 1 1 1 1 1 1 
1 1 1 1 1 1 1 1 1 
1 1 1 1 1 1 1 1 1 
1 1 1 1 1 1 1 1 1 
1 1 1 1 1 1 1 1 1 
1 1 1 1 1 1 1 1 1 
1 1 1 1 1 1 1 1 1 
1 1 1 1 1 1 1 1 1 
1 1 1 1 1 1 1 1 1 
1 1 1 1 1 1 1 1 1 
1 1 1 1 1 1 1 1 1 
1 1 1 1 1 1 1 1 1 
1 1 1 1 1 1 1 1 1 
1 1 1 1 1 1 1 1 1 
1 1 1 1 1 1 1 1 1 
1 1 1 1 1 1 1 1 1 
1 1 1 1 1 1 1 1 1 
1 1 1 1 1 1 1 1 1 
1 1 1 1 1 1 1 1 1 
1 1 1 1 1 1 1 1 1 
1 1 1 1 1 1 1 1 1 