# vtk DataFile Version 4.0
Generated by LAMMPS
ASCII
DATASET POLYDATA
POINTS 4000 float
2.27322 1.73356 -0.220013 0.112176 1.6846 1.84467 4.16135 1.7933 1.9552 
2.02355 3.9193 1.90981 3.83436 3.98618 -0.114339 1.91662 1.91245 3.94909 
4.06146 -0.0546132 4.02216 4.04758 3.92366 3.74807 6.02953 -0.234583 2.05075 
8.04465 -0.138448 -0.0867325 7.93528 1.90248 1.71133 5.94931 4.04584 1.80815 
8.14646 4.03528 -0.037085 6.09843 1.88042 3.89313 8.14671 -0.110904 3.86871 
8.00527 3.99502 3.60607 12.1857 2.08674 1.91902 10.3065 4.24377 1.94644 
10.2284 1.98489 3.97517 12.1843 3.99761 3.99281 14.1042 1.88333 0.0920472 
14.1323 -0.0978421 1.96792 16.0733 1.82964 1.95126 14.2207 4.05597 1.99761 
16.1141 3.95177 0.0258535 14.1574 1.89899 3.8009 16.227 3.84749 4.018 
22.128 1.77167 -0.148226 22.1059 -0.0966508 1.74122 20.1907 1.98024 2.03547 
18.1661 3.88216 1.95937 20.1469 3.98587 -0.0922253 22.2394 3.78885 1.86809 
18.1456 1.77312 4.01734 20.2817 -0.268222 4.02693 22.1891 2.05059 3.8353 
20.1736 4.11801 3.98882 24.3178 1.91931 1.60776 24.1355 4.00792 -0.174901 
26.2381 3.90216 1.7908 24.0563 -0.0940136 3.7137 26.0082 1.72797 4.02102 
24.2004 4.02001 3.92112 30.2651 1.85677 -0.0296345 28.1955 1.8418 1.99164 
28.3849 3.78526 -0.121955 30.3831 3.85756 1.88752 30.3554 2.12729 3.97231 
28.2087 3.93989 3.9713 32.2109 -0.154451 -0.245086 34.3081 -0.124142 1.83029 
32.302 1.75264 1.86981 34.3921 4.18123 1.87041 34.3264 2.02703 3.96536 
32.3225 4.04017 3.97197 40.4085 -0.0933814 3.88056 40.4921 4.03081 3.85973 
38.5163 1.74908 -0.0166406 38.3524 -0.222261 1.89695 36.3046 1.81561 2.02364 
38.4241 3.98963 1.93559 38.479 1.90953 3.86124 36.4936 4.01109 3.96119 
3.97979 6.01007 1.80069 1.93894 8.13754 1.86904 4.01401 8.25051 -0.205879 
2.15035 6.00099 3.86949 0.0752846 8.17437 3.74538 4.10586 8.03841 3.85751 
5.93251 6.05287 -0.303632 8.05113 6.22413 1.7999 6.09642 8.20648 1.78688 
8.11131 8.16188 -0.285012 5.9832 5.96615 3.81476 8.09907 8.02955 3.86461 
12.2558 6.00401 2.02634 10.0683 8.09116 1.74844 12.1504 7.95176 0.0476127 
9.92933 6.01261 3.96274 12.1628 8.19226 3.96704 14.122 5.97708 -0.113132 
16.186 6.01985 2.00791 14.3167 7.98869 2.0409 14.1863 6.04731 4.0349 
16.1709 8.09054 4.00108 18.0147 5.72957 -0.164387 22.1457 5.98466 -0.135406 
20.1923 5.98287 1.88793 18.1513 7.78847 1.88885 20.1435 7.85707 -0.274655 
22.1042 8.13673 1.93388 18.1125 5.92444 4.05005 22.2204 5.9865 3.87207 
20.2104 8.00121 3.87133 26.3316 5.91072 -0.0262327 24.2444 6.05924 1.79384 
24.283 7.93676 -0.166425 26.1897 8.03669 1.90327 26.2668 5.98636 3.77831 
24.2047 8.06209 3.8846 30.3803 5.98768 -0.274607 28.5158 6.0292 1.78061 
28.3521 8.02012 -0.174205 30.4504 8.03471 1.92591 30.2863 6.05101 3.9364 
28.2828 8.04785 3.88328 34.3888 6.02363 -0.323998 32.2528 6.06565 1.90918 
32.4682 8.00039 -0.0649996 34.417 8.01588 1.91749 34.3972 6.07206 3.88124 
32.3201 7.9138 4.04729 40.2862 6.15807 1.83236 40.3974 8.02927 -0.293152 
38.3747 5.88434 -0.0498554 36.4393 6.07094 1.76168 36.4454 8.142 -0.098258 
38.3473 8.08294 1.82226 38.4781 5.94123 4.03108 36.4642 8.03492 3.85709 
2.07968 10.1523 -0.0937213 0.00382758 10.076 1.7858 4.19229 10.0913 1.80879 
0.0561429 12.1538 -0.308248 2.0396 12.2897 1.72631 4.01486 12.0326 -0.265061 
2.13817 9.99913 3.78159 0.205326 12.0677 3.88773 3.97434 12.0577 3.95485 
6.16684 10.2501 -0.304152 8.12744 10.0889 1.76698 6.14899 12.0774 1.84734 
8.18964 12.1777 -0.10635 6.16 10.2267 3.889 8.39547 12.0382 3.98093 
10.3382 10.2892 -0.038075 12.2757 9.90728 1.82086 10.2711 12.0464 1.77578 
12.3284 12.1599 -0.146656 10.2171 9.98858 3.93102 12.1523 12.1176 4.05686 
14.166 10.0669 -0.198643 16.2508 10.0139 1.9764 14.2785 12.1851 1.93888 
16.3049 12.0332 -0.0769748 14.3807 10.1702 3.92107 16.2193 12.1725 3.96236 
18.1076 10.0043 -0.232628 20.1325 10.0876 1.84972 18.3776 12.19 1.8774 
20.3551 12.1392 -0.0591596 22.2787 12.105 1.83141 18.1546 10.1089 3.96707 
22.0585 10.1543 3.76459 20.1236 12.2102 3.9296 26.292 9.97611 0.0425427 
24.2045 10.1347 1.96907 26.3041 11.9863 2.11803 26.3734 9.88671 3.95696 
24.1167 12.0279 3.87146 30.3346 9.97945 -0.216669 28.4086 10.1611 1.91209 
30.3145 12.1753 1.90748 30.407 10.0143 3.95552 28.3331 12.0616 4.03617 
32.1847 9.94718 2.02333 32.3526 12.1632 -0.195696 34.2035 11.9967 1.87553 
34.5386 9.9415 3.83207 32.4385 12.0255 3.86927 36.359 10.0229 1.8659 
38.3559 12.0271 1.82369 38.5219 10.0908 4.04331 36.3871 12.0383 3.82768 
2.01109 14.2457 -0.157244 4.1233 14.1754 1.73186 1.97588 16.2134 1.85565 
2.01959 14.2454 3.93879 4.1427 16.1504 3.92378 6.06432 13.9832 -0.257636 
8.19739 14.1157 1.95186 6.16027 16.1662 1.89026 6.09367 14.0555 3.88764 
8.3313 16.3241 3.97426 10.3924 14.1087 -0.301528 12.4441 14.3326 1.81046 
10.2322 16.1243 1.70457 12.4333 16.1515 -0.186713 10.1983 14.2159 4.01835 
12.441 16.3574 4.00862 16.3002 14.1248 1.9845 14.4109 16.228 2.0221 
14.3527 14.2528 3.97034 16.2652 16.1848 4.05797 18.1798 14.1442 -0.0210791 
22.437 14.2098 -0.0514554 20.344 14.2395 1.94428 18.3019 16.2229 1.98239 
20.2412 16.2134 -0.0492095 22.3595 16.1193 1.9133 18.256 14.2888 3.80893 
22.3151 14.2275 3.95594 20.1941 16.1393 4.00113 24.3977 14.1409 1.99099 
26.2917 16.2578 2.02238 26.2491 14.0554 3.9629 24.3615 16.1738 4.13741 
30.3745 14.1319 -0.230748 28.2495 14.1529 1.90949 28.2809 16.1391 -0.0569929 
30.2584 16.05 1.86234 30.4744 14.0441 3.88963 28.4387 16.1026 3.83598 
32.3333 14.0979 1.87511 34.3334 16.2055 1.79445 34.3715 14.0397 3.84556 
32.435 16.0139 3.76865 40.2989 14.2653 1.84366 40.1551 16.2732 -0.401148 
40.3192 16.1388 3.80974 36.2539 14.035 1.7297 38.2527 15.9931 1.72021 
38.3667 14.0418 3.95076 36.3784 15.892 3.85109 4.10333 18.355 1.89921 
2.17077 20.3972 1.94237 4.21818 22.4192 1.79261 2.08903 18.154 3.81097 
-0.0452085 20.2022 3.69749 1.98086 22.3951 3.68444 4.25584 20.2492 3.85527 
8.27253 18.1825 1.75051 6.22306 20.2501 1.85882 8.13704 22.235 1.88079 
6.16618 18.1506 3.85762 6.05301 22.3252 4.02272 8.03679 20.0993 3.95891 
10.3129 18.0476 -0.294403 12.3122 18.3232 1.96987 10.1732 20.1736 2.02716 
12.0951 22.2442 1.8892 10.2425 18.2123 3.93846 10.0143 22.1138 3.9168 
12.2579 20.2853 3.94624 14.3275 18.2795 -0.0730558 16.4259 18.2467 1.94371 
14.3128 20.2889 1.97125 16.2989 20.2973 -0.0201835 16.3146 22.3713 1.83996 
14.3977 18.4691 3.99278 14.2325 22.3103 3.8732 16.4118 20.3421 4.06285 
18.1047 18.1526 -0.220077 22.3698 18.1663 -0.260198 20.3701 18.1691 1.847 
18.3276 22.2565 -0.14518 18.3209 20.2462 2.00058 20.3743 20.3596 -0.215408 
22.4249 20.3205 1.92455 20.2481 22.1971 1.88232 18.2358 18.1737 4.06392 
22.2945 18.165 3.87178 18.3281 22.3443 4.05125 20.2407 20.2548 3.94326 
22.3223 22.2255 3.86884 24.259 18.2984 1.77032 24.4255 20.181 -0.215581 
26.2961 20.4156 1.8869 24.3195 22.3457 1.99001 26.3726 18.0454 4.00708 
24.4064 20.1769 3.92227 26.3346 22.3798 3.98536 28.2666 18.1957 1.97074 
30.3064 22.2563 0.0131027 30.2638 20.1425 2.02586 28.3256 22.5694 2.17905 
30.4398 18.2351 3.95492 28.263 20.2022 3.76893 30.4635 22.3777 4.10426 
34.4421 18.3054 -0.220518 32.3963 18.1743 1.98551 34.4582 20.2787 1.7582 
32.5077 22.2775 2.01419 34.4685 18.2307 3.75052 32.4205 20.322 3.9518 
34.4397 22.3045 3.91469 40.363 18.0696 1.73214 40.4266 22.3284 1.72032 
36.3417 18.0646 1.68869 38.4348 22.237 -0.0879851 38.4031 20.2065 1.77098 
36.3899 22.1206 1.72363 38.2545 18.0127 3.68794 36.3479 20.1652 3.79485 
38.4795 22.4398 3.71379 2.27136 26.4122 -0.220911 2.11553 24.3775 1.90705 
0.191981 26.4072 1.95345 4.19211 26.3712 1.81719 2.1966 26.3061 3.80779 
4.08385 24.2549 3.90932 6.20399 24.451 2.12127 8.27962 26.3446 1.96362 
6.17248 26.4777 3.91885 8.1926 24.2314 4.01057 10.144 26.252 -0.241408 
10.0245 24.2259 1.96104 12.0895 26.3877 1.90673 10.3112 26.2795 3.82565 
12.0481 24.1917 3.95809 14.0451 26.532 -0.198338 14.1097 24.3694 1.90936 
16.0975 26.3057 1.85091 14.1699 26.2854 3.96008 16.1678 24.3617 3.95034 
18.0692 26.4124 0.0411336 18.2436 24.379 1.80073 22.2714 26.5195 -0.0214666 
22.2247 24.4614 1.84497 20.0723 26.3473 1.94599 18.1874 26.3812 4.04711 
20.1052 24.359 3.84706 22.2712 26.2821 3.97578 26.1436 26.3922 -0.206122 
26.2912 24.333 1.99989 24.3568 26.4857 1.82227 24.3735 24.311 4.09852 
26.2075 26.2384 3.90574 30.4369 24.4393 1.95646 28.2962 26.4825 1.93326 
28.3649 24.3262 4.00299 30.3844 26.5729 3.92177 34.3264 26.3005 -0.235432 
34.2747 24.4159 1.83366 32.3429 26.4493 1.82206 32.5195 24.3708 4.08594 
34.3355 26.4308 3.88974 40.4507 24.3211 -0.0669502 40.446 24.4766 3.94185 
36.4081 24.3193 -0.224035 38.4558 26.3707 -0.00302223 38.3647 24.4038 1.75792 
36.3008 26.3771 1.73964 36.4852 24.3939 3.72041 38.3707 26.3174 3.81114 
0.127111 28.43 -0.0423006 2.05151 30.3835 -0.324007 2.15234 28.471 1.85756 
0.0547931 30.3501 1.95509 4.1658 28.4713 -0.0705812 4.14829 30.3677 1.86503 
2.23802 30.5418 3.9876 4.07963 28.4678 3.8749 6.05909 30.4171 -0.177342 
6.18958 28.4164 1.96959 7.97715 30.5361 2.00285 6.17187 30.3928 3.98775 
8.16287 28.3518 4.08315 10.0163 28.4609 2.02922 12.0071 28.616 -0.00196732 
12.2685 30.496 2.01359 10.296 30.4428 3.97426 12.0912 28.3319 3.77971 
14.1915 30.4903 -0.114557 14.0664 28.4132 1.99968 16.2373 30.4067 1.88921 
14.1451 30.4562 4.12777 16.1551 28.2906 3.83121 18.2835 28.5316 1.87964 
22.1176 30.243 -0.0549368 22.1841 28.4549 2.12214 20.3839 30.3906 1.92228 
18.1497 30.3339 3.90396 20.1806 28.5309 3.93416 22.2232 30.4981 4.17826 
24.1083 28.3699 -0.0467738 26.219 28.4677 1.96359 24.222 30.422 1.94914 
24.2608 28.5225 4.0276 26.4187 30.4242 4.04167 28.285 28.3362 -0.0623833 
30.4748 30.5421 -0.148301 30.348 28.4344 1.79783 28.3565 30.2943 2.03493 
28.2136 28.3544 3.98185 30.3627 30.4256 4.05946 32.4113 28.5002 -0.0308443 
34.4065 30.6202 -0.238361 34.4373 28.5574 1.78776 32.3464 30.5558 1.88131 
32.4531 28.503 3.81299 34.4527 30.6675 4.01766 40.4279 28.3883 3.91488 
36.4798 28.3295 -0.286974 38.401 28.3089 1.87528 36.4511 30.3727 1.74533 
36.3611 28.4541 3.90236 38.2966 30.2149 3.89787 2.08012 32.4724 1.92565 
[...]
POINT_DATA 4000
FIELD FieldData 6
id 1 4000 int
2 4 8 43 45 402 405 445 7 
9 12 47 49 406 409 449 16 51 
410 453 14 15 20 55 57 414 457 
22 23 24 59 61 63 418 421 422 
461 28 65 67 425 426 465 30 32 
69 71 430 469 33 35 36 75 434 
473 401 441 38 39 40 79 438 477 
48 83 85 442 481 485 46 52 87 
89 446 489 56 91 93 450 493 54 
60 95 454 497 58 62 64 99 101 
103 458 462 501 66 68 105 107 466 
505 70 72 109 111 470 509 74 76 
113 115 474 513 44 81 78 80 117 
119 478 517 82 84 88 121 123 125 
482 521 525 86 92 127 129 486 529 
90 96 131 133 490 533 94 100 135 
137 494 537 98 104 139 141 143 498 
502 541 106 108 147 506 545 110 112 
151 510 549 116 153 155 514 553 120 
159 518 557 122 128 163 522 565 126 
132 167 526 569 130 136 171 173 530 
573 140 175 534 577 138 142 144 179 
181 183 538 542 581 148 187 546 585 
150 152 189 191 550 589 156 195 554 
593 124 161 561 160 199 558 597 168 
203 208 562 601 602 605 172 207 212 
566 606 609 170 176 211 216 570 610 
613 174 180 215 217 220 574 614 617 
178 182 184 218 219 221 223 224 578 
582 618 621 622 188 225 227 228 586 
625 626 192 230 231 232 590 629 630 
194 196 235 236 594 633 634 164 204 
200 238 239 240 598 637 638 242 243 
244 248 642 645 247 252 646 649 250 
251 256 650 653 254 255 260 654 657 
258 259 262 263 264 658 661 662 266 
267 268 665 666 271 272 669 670 274 
275 276 673 674 241 641 277 278 279 
280 677 678 281 282 283 284 285 288 
682 685 286 287 292 686 689 291 293 
296 690 693 294 295 300 694 697 299 
302 303 304 698 701 702 305 307 308 
705 706 309 310 311 312 709 710 313 
314 315 316 713 714 681 317 319 320 
717 718 323 324 325 328 722 725 327 
332 726 729 331 336 730 733 334 335 
340 734 737 339 343 344 738 741 742 
345 347 348 745 746 351 352 749 750 
355 356 753 754 721 357 358 359 360 
757 758 3 5 361 363 364 365 368 
761 762 765 367 372 766 769 11 413 
371 373 376 770 773 17 417 374 375 
380 774 777 19 378 379 381 382 383 
384 778 781 782 27 385 387 388 785 
786 31 429 389 390 391 392 789 790 
433 393 394 395 396 793 794 437 398 
399 400 797 798 403 404 408 443 802 
845 407 412 447 806 809 849 411 416 
451 810 813 853 420 455 814 857 424 
459 463 818 821 822 861 428 467 825 
826 865 432 471 829 830 869 436 475 
834 873 841 440 479 837 838 877 448 
483 842 881 885 452 487 846 889 456 
491 850 893 460 495 854 897 464 499 
503 858 862 901 468 507 866 905 472 
511 870 909 476 515 874 913 444 480 
519 878 917 488 523 882 925 492 527 
886 929 496 531 890 933 500 535 894 
937 504 539 543 898 902 941 508 547 
906 945 512 551 910 949 516 555 914 
953 484 921 520 559 918 957 528 563 
922 965 532 567 926 969 536 571 930 
973 540 575 934 977 544 579 583 938 
942 981 548 587 946 985 552 591 950 
989 556 595 954 993 524 961 560 599 
958 997 568 603 604 608 962 1002 1005 
572 607 612 966 1006 1009 576 611 616 
970 1010 1013 580 615 620 974 1014 1017 
584 619 623 624 978 982 1018 1021 1022 
588 627 628 986 1025 1026 592 631 632 
990 1029 1030 596 635 636 994 1033 1034 
564 1001 600 639 640 998 1037 1038 643 
644 648 1041 1042 1045 647 652 1046 1049 
651 656 1050 1053 655 660 1054 1057 659 
663 664 1058 1061 1062 667 668 1065 1066 
671 672 1069 1070 675 676 1073 1074 679 
680 1077 1078 683 688 1082 1085 687 692 
1086 1089 691 696 1090 1093 695 700 1094 
1097 699 703 704 1098 1101 1102 707 708 
1105 1106 711 712 1109 1110 715 716 1113 
1114 684 1081 719 720 1117 1118 723 724 
728 1122 1125 727 732 1126 1129 731 736 
1130 1133 735 740 1134 1137 739 743 744 
1138 1141 1142 747 748 1145 1146 751 752 
1149 1150 755 756 1153 1154 1121 759 760 
1157 1158 805 763 768 1162 1165 767 772 
1166 1169 771 776 1170 1173 415 817 775 
780 1174 1177 419 423 779 783 784 1178 
1181 1182 427 787 788 1185 1186 431 791 
792 1189 1190 435 833 795 796 1193 1194 
801 439 764 1161 799 800 1197 1198 803 
808 843 1202 1205 1241 1245 807 812 847 
1206 1209 1249 811 816 851 1210 1213 1253 
820 855 1214 1257 819 824 859 863 1218 
1222 1261 827 828 867 1225 1226 1265 832 
871 1230 1269 835 836 875 1234 1273 804 
840 879 1237 1238 1277 844 848 883 1242 
1281 1285 852 887 1246 1289 856 891 1250 
1293 860 895 1254 1297 864 899 903 1258 
1262 1301 868 907 1266 1305 872 911 1270 
1309 876 915 1274 1313 880 919 1278 1317 
884 888 923 1282 1325 892 927 1286 1329 
896 931 1290 1333 900 935 1294 1337 904 
939 943 1298 1302 1341 908 947 1306 1345 
912 951 1310 1349 916 955 1314 1353 1321 
920 959 1318 1357 928 963 1322 1365 932 
967 1326 1369 936 971 1330 1373 940 975 
1334 1377 944 979 983 1338 1342 1381 948 
987 1346 1385 952 991 1350 1389 956 995 
1354 1393 924 1361 960 999 1358 1397 964 
968 1003 1008 1362 1402 1405 972 1007 1012 
1366 1406 1409 976 1011 1016 1370 1410 1413 
980 1015 1020 1374 1414 1417 984 1019 1023 
1024 1378 1382 1418 1421 1422 988 1027 1028 
1386 1425 1426 992 1031 1032 1390 1429 1430 
996 1035 1036 1394 1433 1434 1004 1401 1000 
1039 1040 1398 1437 1438 1043 1044 1048 1442 
1445 1047 1052 1446 1449 1051 1056 1450 1453 
1055 1060 1454 1457 1059 1063 1064 1458 1461 
1462 1067 1068 1465 1466 1071 1072 1469 1470 
1075 1076 1473 1474 1441 1079 1080 1477 1478 
1083 1088 1481 1482 1485 1087 1092 1486 1489 
1091 1096 1490 1493 1095 1100 1494 1497 1099 
1103 1104 1498 1501 1502 1107 1108 1505 1506 
1111 1112 1509 1510 1115 1116 1513 1514 1084 
1119 1120 1517 1518 1123 1124 1128 1522 1525 
1127 1132 1526 1529 1131 1136 1530 1533 1135 
1140 1534 1537 1139 1143 1144 1538 1541 1542 
1147 1148 1545 1546 1151 1152 1549 1550 1155 
1156 1553 1554 1521 1159 1160 1557 1558 1163 
1168 1561 1562 1565 1167 1172 1566 1569 1171 
1176 1570 1573 815 1217 1175 1180 1574 1577 
823 1221 1179 1183 1184 1578 1581 1582 1187 
1188 1585 1586 831 1229 1191 1192 1589 1590 
1233 1195 1196 1593 1594 1201 839 1164 1199 
1200 1597 1598 1208 1243 1601 1602 1605 1645 
1207 1212 1247 1606 1609 1649 1211 1216 1251 
1610 1613 1653 1215 1220 1255 1614 1657 1219 
1223 1224 1259 1263 1618 1621 1622 1661 1227 
1228 1267 1625 1626 1665 1231 1232 1271 1630 
1669 1235 1236 1275 1634 1673 1204 1641 1240 
1279 1638 1677 1244 1248 1283 1642 1681 1685 
1252 1287 1646 1689 1256 1291 1650 1693 1260 
1295 1654 1697 1264 1299 1303 1658 1662 1701 
1268 1307 1666 1705 1272 1311 1670 1709 1276 
1315 1674 1713 1280 1319 1678 1717 1288 1323 
1682 1725 1292 1327 1686 1729 1296 1331 1690 
1733 1300 1335 1694 1737 1304 1339 1343 1698 
1702 1741 1704 1308 1347 1706 1745 1312 1351 
1710 1749 1316 1355 1714 1753 1284 1721 1320 
1359 1718 1757 1324 1328 1363 1722 1761 1765 
1332 1367 1726 1769 1336 1371 1730 1773 1340 
1375 1734 1777 1344 1379 1383 1738 1742 1781 
1783 1348 1387 1746 1785 1352 1391 1750 1789 
1356 1395 1754 1793 1360 1399 1758 1797 1368 
1403 1404 1408 1762 1801 1802 1805 1372 1407 
1412 1766 1806 1809 1376 1411 1416 1770 1810 
1813 1380 1415 1420 1774 1814 1817 1384 1419 
1423 1424 1778 1782 1818 1821 1822 1388 1427 
1428 1786 1825 1826 1392 1431 1432 1790 1829 
1830 1396 1435 1436 1794 1833 1834 1364 1400 
1439 1440 1798 1837 1838 1443 1444 1448 1841 
1842 1845 1447 1452 1846 1849 1451 1456 1850 
1853 1455 1460 1854 1857 1459 1463 1464 1858 
1861 1862 1467 1468 1865 1866 1471 1472 1869 
1870 1475 1476 1873 1874 1479 1480 1877 1878 
1483 1484 1488 1881 1882 1885 1487 1492 1886 
1889 1491 1496 1890 1893 1495 1500 1894 1897 
1499 1503 1504 1898 1901 1902 1507 1508 1905 
1906 1511 1512 1909 1910 1515 1516 1913 1914 
1519 1520 1917 1918 1523 1528 1922 1925 1527 
1532 1926 1929 1531 1536 1930 1933 1535 1540 
1934 1937 1539 1543 1544 1938 1941 1942 1547 
1548 1945 1946 1551 1552 1949 1950 1555 1556 
1953 1954 1524 1921 1559 1560 1957 1958 1203 
1563 1564 1568 1962 1965 1567 1572 1966 1969 
1571 1576 1970 1973 1617 1575 1580 1974 1977 
1579 1583 1584 1978 1981 1982 1587 1588 1985 
1986 1629 1591 1592 1989 1990 1633 1595 1596 
1993 1994 1239 1637 1961 1599 1600 1997 1998 
1603 1608 1643 2001 2002 2003 2004 2005 2008 
2043 2045 1612 1647 2006 2009 2012 2047 2049 
1616 1651 2010 2016 2051 2053 1620 1655 2014 
2020 2055 2057 1623 1624 1659 1663 2018 2019 
2022 2023 2024 2059 2061 2063 1627 1628 1667 
2025 2026 2028 2065 1632 1671 2029 2030 2031 
2032 2069 2071 1635 1636 1675 2033 2034 2035 
2036 2073 2075 1604 2041 1640 1679 2037 2038 
2039 2040 2077 2079 1648 1683 2042 2044 2048 
2081 2083 2085 1652 1687 2046 2052 2087 2089 
1656 1691 2050 2056 2091 2093 1660 1695 2054 
2060 2095 2097 1664 1699 1703 2058 2062 2064 
2099 2101 2103 1668 1707 2066 2068 2105 2107 
1672 1711 2070 2072 2109 2111 1676 1715 2074 
2076 2113 2115 1644 1680 1719 2078 2080 2117 
2119 1688 1723 2082 2084 2088 2121 2123 2125 
1692 1727 2086 2092 2127 2129 1696 1731 2090 
2096 2131 2133 1700 1735 2094 2100 2135 2137 
1739 1743 2098 2102 2104 2139 2141 2143 1708 
1747 2106 2108 2145 2147 1712 1751 2110 2112 
2149 2151 1716 1755 2114 2116 2153 2155 1684 
1720 1759 2118 2120 2157 2159 1724 1728 1763 
2122 2124 2128 2163 2165 1732 1767 2126 2132 
2167 2169 1736 1771 2130 2136 2171 2173 1740 
1775 2134 2140 2175 2177 1744 1779 2138 2142 
2144 2179 2181 2183 1748 1787 2146 2148 2185 
2187 1752 1791 2150 2152 2189 2191 1756 1795 
2154 2156 2193 2195 2161 1760 1799 2158 2160 
2197 2199 1764 1768 1803 1804 1808 2162 2164 
2168 2202 2203 2204 2205 2208 1772 1807 1812 
2166 2172 2206 2209 2212 1776 1811 1816 2170 
2176 2210 2211 2213 2216 1780 1815 1820 2174 
2180 2214 2215 2217 2220 1784 1819 1823 1824 
2178 2182 2184 2218 2219 2221 2222 2223 2224 
1788 1827 1828 2186 2188 2225 2226 2227 2228 
1792 1831 1832 2190 2192 2229 2230 2231 2232 
1796 1835 1836 2194 2196 2233 2234 2235 2236 
2201 1800 1839 1840 2198 2200 2237 2238 2239 
2240 1843 1848 2242 2243 2244 2245 2248 1847 
1852 2246 2247 2249 2252 1851 1856 2250 2251 
2253 2256 1855 1860 2254 2255 2257 2260 1859 
1863 1864 2258 2259 2261 2262 2263 2264 1867 
1868 2265 2266 2267 2268 1871 1872 2269 2270 
2271 2272 1875 1876 2273 2274 2275 2276 1844 
2241 1879 1880 2277 2278 2279 2280 1883 1884 
1888 2282 2283 2284 2285 2288 1887 1892 2286 
2287 2289 2292 1891 1896 2290 2291 2293 2296 
1895 1900 2294 2295 2297 2300 1899 1903 1904 
2298 2299 2301 2302 2303 2304 1907 1908 2305 
2306 2308 1911 1912 2309 2310 2311 2312 1915 
1916 2313 2314 2315 2316 2281 1919 1920 2317 
2318 2319 2320 1923 1928 2322 2323 2325 2328 
1927 1932 2326 2327 2329 2332 1931 1936 2330 
2331 2333 2336 1935 1940 2334 2335 2337 2340 
1939 1943 1944 2338 2339 2341 2342 2343 2344 
1947 1948 2345 2346 2347 2348 1951 1952 2349 
2350 2351 2352 1955 1956 2353 2354 2355 2356 
1924 2321 2324 1959 1960 2357 2358 2359 2360 
1963 1964 1968 2362 2363 2365 2368 1607 2007 
1967 1972 2366 2367 2369 2372 1611 2011 2013 
1971 1976 2370 2371 2373 2376 1615 2015 2017 
1975 1980 2374 2375 2377 2380 1619 2021 1979 
1983 1984 2378 2379 2381 2382 2383 2384 2027 
1987 1988 2385 2386 2387 2388 1631 1991 1992 
2389 2390 2391 2392 1995 1996 2393 2394 2395 
2396 1639 2361 2364 1999 2000 2397 2398 2399 
2400 2402 2405 2408 2441 2443 2445 2406 2407 
2409 2412 2447 2449 2410 2411 2416 2451 2453 
2414 2415 2420 2455 2457 2418 2422 2423 2424 
2459 2461 2463 2067 2425 2426 2428 2465 2467 
2429 2430 2432 2469 2471 2433 2434 2435 2436 
2473 2475 2401 2404 2437 2438 2440 2477 2479 
2442 2444 2448 2483 2485 2446 2452 2487 2489 
2450 2456 2491 2493 2454 2460 2495 2497 2458 
2462 2464 2499 2501 2503 2466 2468 2505 2507 
2470 2472 2509 2511 2474 2476 2513 2515 2481 
2478 2480 2517 2519 2482 2488 2523 2525 2486 
2492 2527 2529 2490 2496 2531 2533 2494 2500 
2535 2537 2498 2502 2504 2539 2541 2543 2506 
2508 2545 2547 2510 2512 2549 2551 2514 2516 
2553 2555 2484 2521 2518 2520 2557 2559 2522 
2528 2561 2563 2565 2526 2532 2567 2569 2530 
2536 2571 2573 2570 2534 2540 2575 2577 2538 
2542 2544 2579 2581 2583 2546 2548 2585 2587 
2550 2552 2589 2591 2554 2556 2593 2595 2524 
2558 2560 2597 2599 2562 2568 2601 2602 2603 
2605 2608 2207 2566 2572 2606 2607 2609 2612 
2576 2610 2611 2613 2616 2574 2580 2614 2615 
2617 2620 2578 2582 2584 2618 2619 2621 2622 
2623 2624 2586 2588 2625 2626 2627 2628 2590 
2592 2629 2630 2631 2632 2594 2596 2633 2634 
2635 2636 2564 2604 2598 2600 2637 2638 2639 
2640 2641 2642 2643 2644 2645 2648 2646 2647 
2649 2652 2650 2651 2653 2656 2654 2655 2657 
2660 2658 2659 2661 2662 2663 2664 2665 2666 
2667 2668 2669 2670 2671 2672 2673 2674 2675 
2676 2677 2678 2679 2680 2682 2683 2684 2685 
2688 2686 2687 2689 2692 2690 2691 2693 2696 
2694 2695 2697 2700 2698 2699 2701 2702 2703 
2704 2307 2705 2706 2707 2708 2709 2710 2711 
2712 2713 2714 2715 2716 2681 2717 2718 2719 
2720 2721 2722 2723 2724 2725 2728 2726 2727 
2729 2732 2730 2731 2733 2736 2734 2735 2737 
2740 2738 2739 2741 2742 2743 2744 2745 2746 
2747 2748 2749 2750 2751 2752 2753 2754 2755 
2756 2757 2758 2759 2760 2403 2762 2763 2765 
2768 2766 2767 2769 2772 2413 2770 2771 2773 
2776 2417 2774 2775 2777 2780 2419 2421 2778 
2779 2781 2782 2783 2784 2427 2785 2786 2787 
2788 2431 2789 2790 2791 2792 2793 2794 2795 
2796 2439 2761 2764 2797 2798 2799 2800 2802 
2803 2805 2808 2841 2843 2845 2806 2807 2809 
2812 2847 2849 2810 2811 2813 2816 2851 2853 
2814 2815 2820 2855 2857 2818 2819 2821 2822 
2823 2824 2859 2861 2863 2825 2826 2827 2828 
2865 2867 2829 2830 2831 2832 2869 2871 2834 
2836 2873 2875 2804 2838 2840 2877 2879 2842 
2844 2848 2883 2885 2846 2852 2887 2889 2850 
2856 2891 2893 2854 2860 2895 2897 2858 2862 
2864 2899 2901 2903 2866 2868 2905 2907 2870 
2872 2909 2911 2874 2876 2913 2915 2881 2878 
2880 2917 2919 2882 2888 2921 2923 2925 2886 
2892 2927 2929 2890 2896 2931 2933 2894 2900 
2935 2937 2898 2902 2904 2939 2941 2943 2906 
2908 2945 2947 2910 2912 2949 2951 2914 2916 
2953 2955 2884 2918 2920 2957 2959 2922 2928 
2961 2963 2965 2926 2932 2967 2969 2930 2936 
2971 2973 2934 2940 2975 2977 2938 2942 2944 
2979 2981 2983 2946 2948 2985 2987 2950 2952 
2989 2991 2954 2956 2993 2995 2924 2958 2960 
2997 2999 2962 2964 2968 3001 3002 3003 3005 
3008 2966 2972 3006 3007 3009 3012 2970 2976 
3010 3011 3013 3016 2974 2980 3014 3015 3017 
3020 2978 2982 2984 3018 3019 3021 3022 3023 
3024 2986 2988 3025 3026 3027 3028 2990 2992 
3029 3030 3031 3032 2994 2996 3033 3034 3035 
3036 3004 2998 3000 3037 3038 3039 3040 3041 
3042 3043 3045 3048 3046 3047 3049 3052 3050 
3051 3053 3056 3054 3055 3057 3060 3058 3059 
3061 3062 3063 3064 3065 3066 3067 3068 3069 
3070 3071 3072 3073 3074 3075 3076 3044 3077 
3078 3079 3080 3082 3083 3084 3085 3088 3086 
3087 3089 3092 3090 3091 3093 3096 3094 3095 
3097 3100 3098 3099 3101 3102 3103 3104 3105 
3106 3107 3108 3109 3110 3111 3112 3113 3114 
3115 3116 3081 3117 3118 3119 3120 3121 3122 
3123 3125 3128 3126 3127 3129 3132 3130 3131 
3133 3136 3134 3135 3137 3140 3138 3139 3141 
3142 3143 3144 3145 3146 3147 3148 3149 3150 
3151 3152 3153 3154 3155 3156 3124 3157 3158 
3159 3160 3162 3163 3165 3168 3166 3167 3169 
3172 3170 3171 3173 3176 2817 3174 3175 3177 
3180 3178 3179 3181 3182 3183 3184 3185 3186 
3187 3188 3189 3190 3191 3192 2833 2835 3193 
3194 3195 3196 2801 2837 2839 3161 3164 3197 
3198 3199 3200 3202 3203 3205 3208 3243 3245 
3206 3209 3212 3247 3249 3210 3211 3216 3251 
3253 3214 3215 3217 3220 3255 3257 3218 3221 
3222 3223 3224 3259 3261 3263 3225 3226 3227 
3228 3265 3267 3230 3232 3269 3271 3234 3236 
3273 3275 3204 3241 3237 3238 3239 3240 3277 
3279 3242 3248 3283 3285 3246 3252 3287 3289 
3250 3256 3291 3293 3254 3260 3295 3297 3258 
3262 3264 3299 3301 3303 3266 3268 3305 3307 
3270 3272 3309 3311 3274 3276 3313 3315 3244 
3281 3278 3280 3317 3319 3282 3288 3323 3325 
3286 3292 3327 3329 3290 3296 3331 3333 3294 
3300 3335 3337 3298 3302 3304 3339 3341 3343 
3306 3308 3345 3347 3310 3312 3349 3351 3314 
3316 3353 3355 3284 3321 3318 3320 3357 3359 
3322 3328 3363 3365 3326 3332 3367 3369 3330 
3336 3371 3373 3334 3340 3375 3377 3338 3342 
3344 3379 3381 3383 3346 3348 3385 3387 3350 
3352 3389 3391 3354 3356 3393 3395 3324 3361 
3358 3360 3397 3399 3362 3368 3402 3403 3405 
3366 3372 3406 3407 3409 3412 3370 3376 3410 
3411 3413 3416 3374 3380 3414 3415 3417 3420 
3378 3382 3384 3418 3419 3421 3422 3423 3424 
3386 3388 3425 3426 3427 3428 3390 3392 3429 
3430 3431 3432 3394 3396 3433 3434 3435 3436 
3364 3401 3404 3398 3400 3437 3438 3439 3440 
3408 3441 3442 3443 3445 3448 3446 3447 3449 
3452 3450 3451 3453 3456 3454 3455 3457 3460 
3458 3459 3461 3462 3463 3464 3465 3466 3467 
3468 3469 3470 3471 3472 3473 3474 3475 3476 
3444 3477 3478 3479 3480 3482 3483 3485 3488 
3486 3487 3489 3492 3490 3491 3493 3496 3494 
3495 3497 3500 3498 3499 3501 3502 3503 3504 
3505 3506 3507 3508 3509 3510 3511 3512 3513 
3514 3515 3516 3481 3484 3517 3518 3519 3520 
3522 3523 3525 3528 3526 3527 3529 3532 3530 
3531 3533 3536 3534 3535 3537 3540 3538 3539 
3541 3542 3543 3544 3545 3546 3547 3548 3549 
3550 3551 3552 3553 3554 3555 3556 3521 3524 
3557 3558 3559 3560 3561 3562 3563 3565 3568 
3207 3566 3567 3569 3572 3213 3570 3571 3573 
3576 3574 3575 3577 3580 3219 3578 3579 3581 
3582 3583 3584 3585 3586 3587 3588 3229 3231 
3589 3590 3591 3592 3233 3235 3593 3594 3595 
3596 3201 3564 3597 3598 3599 3600 3602 3603 
3604 3608 3641 3643 3645 6 3606 3612 3647 
3649 10 53 3610 3613 3616 3651 3653 3614 
3615 3617 3620 3655 3657 18 21 3618 3621 
3622 3623 3624 3659 3661 3663 26 3625 3626 
3627 3628 3665 3667 29 3630 3632 3669 3671 
34 73 3634 3635 3636 3673 3675 41 77 
3638 3640 3677 3679 42 3642 3648 3683 3685 
3646 3652 3687 3689 50 3650 3656 3691 3693 
97 3654 3660 3695 3697 3658 3662 3664 3699 
3701 3703 3666 3668 3705 3707 3670 3672 3709 
3711 3674 3676 3713 3715 3644 3681 3678 3680 
3717 3719 3682 3684 3688 3721 3723 3725 3686 
3692 3727 3729 3690 3696 3731 3733 3694 3700 
3735 3737 102 3698 3702 3704 3739 3741 3743 
145 3706 3708 3745 3747 149 3710 3712 3749 
3751 114 3714 3716 3753 3755 118 157 3718 
3720 3757 3759 165 3722 3728 3763 3765 169 
3726 3732 3767 3769 3730 3736 3771 3773 134 
177 3734 3740 3775 3777 3738 3742 3744 3779 
3781 3783 146 185 3746 3748 3785 3787 3750 
3752 3789 3791 154 193 3754 3756 3793 3795 
158 197 3724 3761 3758 3760 3797 3799 162 
201 202 205 3762 3768 3802 3803 3804 3805 
3808 166 206 209 3766 3772 3806 3807 3809 
3812 210 213 3770 3776 3810 3811 3813 3816 
214 3774 3780 3815 3817 3820 222 3778 3782 
3784 3818 3819 3821 3822 3823 3824 186 226 
3786 3788 3825 3826 3827 3828 190 229 3790 
3792 3829 3830 3831 3832 233 234 3794 3796 
3833 3834 3835 3836 198 237 3764 3801 3798 
3800 3837 3838 3839 3840 245 3841 3842 3843 
3845 3848 246 249 3846 3847 3849 3852 253 
3850 3851 3853 3856 257 3814 3854 3855 3857 
3860 3859 261 3858 3861 3862 3863 3864 265 
3865 3866 3867 3868 269 270 3869 3870 3871 
3872 273 3873 3874 3875 3876 3844 3877 3878 
3879 3880 3881 3882 3883 3885 3888 289 3886 
3887 3889 3892 290 3890 3891 3893 3896 297 
3894 3895 3897 3900 298 301 3898 3899 3901 
3902 3903 3904 306 3905 3906 3907 3908 3909 
3910 3911 3912 3913 3914 3915 3916 318 3884 
3917 3918 3919 3920 322 3922 3923 3925 3928 
326 329 3926 3927 3929 3932 330 333 3930 
3931 3933 3936 337 3934 3935 3937 3940 338 
341 342 3938 3939 3941 3942 3943 3944 346 
3945 3946 3947 3948 349 350 3949 3950 3951 
3952 353 354 3953 3954 3955 3956 321 3921 
3924 3957 3958 3959 3960 1 362 3605 3962 
3963 3964 3965 3968 366 369 3607 3609 3966 
3967 3969 3972 13 370 3611 3970 3971 3973 
3976 377 3974 3975 3977 3980 3619 3978 3979 
3981 3982 3983 3984 25 386 3985 3986 3987 
3988 3629 3631 3989 3990 3991 3992 3633 3993 
3994 3995 3996 37 397 3601 3637 3639 3961 
3997 3998 3999 4000 
type 1 4000 int
1 1 1 1 1 1 1 1 1 
1 1 1 1 1 1 1 1 1 
1 1 1 1 1 1 1 1 1 
1 1 1 1 1 1 1 1 1 
1 1 1 1 1 1 1 1 1 
1 1 1 1 1 1 1 1 1 
1 1 1 1 1 1 1 1 1 
1 1 1 1 1 1 1 1 1 
1 1 1 1 1 1 1 1 1 
1 1 1 1 1 1 1 1 1 
1 1 1 1 1 1 1 1 1 
1 1 1 1 1 1 1 1 1 
1 1 1 1 1 1 1 1 1 
1 1 1 1 1 1 1 1 1 
1 1 1 1 1 1 1 1 1 
1 1 1 1 1 1 1 1 1 
1 1 1 1 1 1 1 1 1 
1 1 1 1 1 1 1 1 1 
1 1 1 1 1 1 1 1 1 
1 1 1 1 1 1 1 1 1 
1 1 1 1 1 1 1 1 1 
1 1 1 1 1 1 1 1 1 
1 1 1 1 1 1 1 1 1 
1 1 1 1 1 1 1 1 1 
1 1 1 1 1 1 1 1 1 
1 1 1 1 1 1 1 1 1 
1 1 1 1 1 1 1 1 1 
1 1 1 1 1 1 1 1 1 
1 1 1 1 1 1 1 1 1 
1 1 1 1 1 1 1 1 1 
1 1 1 1 1 1 1 1 1 