# vtk DataFile Version 4.0
Generated by LAMMPS
ASCII
DATASET POLYDATA
POINTS 4000 float
0.141392 1.85793 1.76246 4.30568 1.81844 1.82569 2.11815 3.85307 1.90787 
2.12296 1.84277 3.90286 4.35574 -0.242639 4.06756 4.11772 3.75359 4.01622 
0.0241978 3.90862 3.81145 8.36264 1.97872 1.88349 6.2147 3.77127 1.89592 
6.29007 1.94994 3.86335 8.33836 3.95261 3.78023 12.1516 1.8028 1.77597 
10.3737 4.03518 1.71011 10.2962 2.00565 3.90324 12.1764 3.94478 3.83364 
10.2509 -0.168588 1.84323 12.3146 -0.000488436 3.8631 12.4154 3.82041 -0.283467 
16.3063 1.9412 1.73057 14.156 3.86778 1.85162 14.2897 1.91839 3.6837 
16.03 3.99331 3.94133 16.2389 -0.331307 3.76668 20.313 1.88057 1.69393 
18.33 4.11131 1.75492 22.3547 3.88866 1.79078 18.1558 2.0207 3.84218 
22.0192 1.9685 3.82387 20.2453 4.04875 3.80406 24.1123 1.70413 1.78158 
24.4182 3.71208 -0.297363 26.1581 3.99609 1.89411 26.1038 1.74827 3.81979 
24.0748 3.87464 3.79875 26.3921 1.8728 -0.162689 24.4798 -0.176851 -0.270303 
30.3101 1.74699 -0.252574 28.3426 1.8377 1.92984 30.2181 3.88288 1.82019 
30.2027 1.86625 3.8605 28.201 4.00236 3.96214 28.2286 -0.272367 3.92937 
32.2397 1.81283 1.72199 34.3006 3.84266 1.75718 34.2671 1.82834 3.77063 
32.0922 3.97473 3.84858 38.2539 1.97609 -0.245346 36.2887 1.70343 1.82922 
38.2553 3.76829 1.83355 38.3251 1.80172 3.7953 36.2795 3.98908 3.84106 
36.1704 4.038 -0.0916243 4.24823 5.97557 1.75389 2.28186 7.90604 2.02319 
4.25981 7.95679 -0.11551 2.07399 5.90858 3.88258 0.0739576 7.90604 3.82337 
4.27411 7.93635 3.97343 0.429049 6.00601 1.80774 0.291352 8.00619 -0.350995 
2.17511 6.05648 -0.113162 8.34393 5.96161 1.77136 6.30754 7.96792 1.93207 
6.30989 5.98519 3.87481 8.28997 7.96149 3.87889 12.375 5.97217 1.76025 
10.2068 7.93702 1.68399 12.2178 7.84367 -0.322242 10.2426 6.05356 3.86906 
12.2116 8.01065 3.75441 10.1794 5.88268 -0.345989 14.1325 5.97929 -0.250149 
16.2555 6.06162 1.53091 14.1202 8.06384 1.83469 14.2317 6.04545 3.83837 
16.2006 8.05793 3.83645 20.2465 5.95068 1.90252 18.1434 7.99798 1.62565 
22.2024 7.96657 1.7469 18.2638 6.14379 3.96023 22.1604 6.07797 3.83492 
20.1288 8.08455 3.80795 24.2033 6.01898 1.88363 26.1252 7.9434 1.84485 
26.0884 6.06893 4.08564 24.0781 7.85603 3.96136 28.148 5.92992 1.95759 
28.109 7.88602 -0.113611 30.2703 7.80892 1.97467 30.1957 5.91591 3.97803 
28.1185 7.82289 4.0317 34.1957 6.10883 -0.251432 32.1831 5.91468 1.86585 
34.2677 7.96943 1.93379 34.1535 5.80387 3.80175 32.2901 7.87358 3.82102 
38.2974 5.95816 -0.21159 36.3394 5.97678 1.77467 36.1574 7.94988 -0.201404 
38.3982 8.01177 1.78676 38.1655 5.88535 3.8351 36.2558 7.82221 3.93452 
2.36826 9.92733 -0.0913617 4.2506 9.7728 1.90417 2.37688 12.0585 1.94545 
2.35503 9.92067 3.94786 4.36471 12.0421 3.8358 6.30701 10.0045 -0.205092 
8.28925 10.0296 1.76835 6.20975 12.2525 1.68047 6.30427 10.0348 3.93374 
8.17638 12.0275 3.75809 10.2527 9.87978 -0.306692 12.2247 9.86451 1.62305 
10.071 12.0084 1.5865 10.1196 9.82173 3.8619 12.0051 11.8465 3.6881 
14.2998 10.1558 -0.330976 16.1655 10.0231 1.7968 13.9859 12.0347 1.91285 
16.3127 12.2247 -0.129234 13.9885 9.96957 3.73438 16.1927 11.8617 3.79026 
18.1444 10.0816 -0.346256 20.1583 9.98709 1.80351 18.3234 11.917 1.51463 
22.5136 11.9212 1.73571 18.2168 10.1119 3.80951 22.2808 9.99555 3.73044 
20.4606 11.9678 3.79588 24.2245 9.91311 1.66609 26.3276 12.0471 1.85648 
26.4148 10.0144 3.91839 24.2911 12.1298 3.94716 30.0928 10.0276 -0.0950808 
28.2587 9.8735 1.97764 30.2459 12.0806 1.9208 30.1409 9.86625 3.82622 
28.2047 12.0857 3.8621 32.2993 9.88234 1.85983 34.2487 12.133 1.92668 
34.257 9.88334 3.94462 32.4365 12.0435 3.99991 34.2374 9.99181 -0.298328 
40.4154 9.95959 2.05673 40.4699 12.0588 3.95488 36.097 10.1638 1.81119 
38.2826 11.9813 1.91346 38.1595 10.0373 3.78324 36.2778 12.0782 3.91776 
36.0986 12.1736 -0.117126 2.22474 14.2188 -0.346845 4.2222 14.0798 1.90751 
2.11217 16.0511 1.98456 2.40664 14.1706 4.04499 4.34049 16.3023 3.82075 
8.26756 14.159 1.86956 6.37299 16.3428 1.7619 6.38772 14.3218 3.85708 
8.32996 16.2988 3.87049 10.2547 14.0938 -0.198035 12.2148 14.0499 1.89111 
10.3881 16.1984 1.80923 12.2345 16.1006 -0.191848 10.329 13.9925 3.67224 
12.2853 15.8675 4.04333 16.3825 14.1854 1.81121 14.1696 16.0886 1.72722 
14.2422 13.9271 3.9019 16.2318 15.964 3.8022 18.2274 14.2427 -0.238438 
20.1311 14.0629 1.92555 18.1079 16.211 1.98739 22.2588 16.058 1.82653 
18.0426 13.8268 3.79106 22.1906 14.2976 3.81801 20.1459 16.1042 4.14583 
24.1013 14.0235 1.75751 26.2111 16.0513 1.8515 26.0933 14.2275 4.06858 
24.2364 16.1148 3.84689 24.2007 15.991 -0.164756 30.4269 14.1839 -0.376442 
28.4381 14.1765 1.90431 28.2208 16.1332 -0.225607 30.444 16.1141 2.01139 
30.1351 14.1001 4.05967 28.1274 16.1021 3.94402 32.144 14.1699 1.96177 
34.3985 15.9651 1.82447 34.2502 14.014 3.99582 32.3628 16.1213 4.00333 
34.1489 14.1187 -0.262044 40.4222 13.7786 2.03924 40.3399 16.358 -0.19919 
40.252 16.2093 4.00097 36.3833 14.2242 1.91436 38.4532 15.9794 1.84138 
38.4917 14.0711 4.06823 36.5054 16.0855 3.93283 36.3713 16.1944 -0.312955 
4.25735 18.2087 2.00409 2.34113 20.4831 1.95207 4.3207 22.3983 1.89569 
2.31335 18.3117 3.9656 0.162837 20.1486 3.96446 2.11309 22.3523 4.00924 
4.17818 20.3745 3.78286 2.3201 22.4715 -0.256266 8.25286 18.2879 1.81928 
6.3115 20.2321 1.85442 8.42894 22.2586 1.67743 6.22689 18.2333 3.88909 
6.33421 22.2733 3.7072 8.15908 20.2758 3.97022 6.23129 18.2787 -0.219737 
10.3015 18.2392 -0.147108 12.1834 18.2265 1.85955 10.2198 20.273 1.82561 
12.2139 22.4446 1.79478 10.2454 18.3365 4.04598 10.2233 22.075 3.81689 
12.1236 20.3123 3.97827 14.2851 18.2054 -0.104485 16.2319 18.1486 2.10155 
14.2759 20.3542 1.9257 16.2542 22.1811 1.93814 14.243 18.1678 3.7819 
14.2362 22.1386 3.94087 16.2825 20.1114 3.93397 14.2724 22.3972 -0.0614205 
20.2402 18.2411 1.92073 18.306 20.243 1.89413 20.377 20.1341 -0.211511 
22.3396 20.0685 1.91458 20.2328 22.2114 1.86993 18.2834 18.1946 3.9391 
22.26 17.962 3.93109 18.1808 22.199 3.89337 20.2795 20.208 3.91421 
22.3536 22.3252 3.93971 24.1796 18.0281 1.92531 26.2732 20.184 1.92667 
24.3128 22.416 1.90283 26.2348 18.1734 3.90531 24.2738 20.2189 3.94381 
26.2779 22.2425 3.8798 26.2016 18.1144 -0.17903 28.4841 18.0349 1.85443 
30.4568 22.1072 -0.170218 30.3714 20.1873 1.85799 28.2939 22.2331 1.91582 
30.2261 18.1947 3.87139 28.2503 20.2739 3.96105 30.1853 22.2249 3.88323 
30.2226 18.1612 -0.303183 28.3535 20.2458 -0.0169161 34.2527 18.1023 -0.255978 
32.3115 18.0326 1.8672 34.2274 20.0303 1.86239 32.3332 22.2469 2.02114 
34.3185 18.0752 3.88317 32.0983 20.146 3.8279 34.3123 22.2197 3.79746 
32.3619 20.085 -0.177048 34.3218 22.1261 -0.213073 40.4309 18.2263 1.99491 
40.3391 22.1905 1.83499 36.3287 18.1395 1.85795 38.3196 22.2275 0.065212 
38.3103 20.0908 1.94525 36.3556 22.1683 1.94417 38.3108 18.0965 3.78098 
36.2299 20.0963 3.90859 38.3463 22.1677 3.8018 36.3636 20.1315 -0.00907723 
2.27354 24.2112 1.96072 0.138108 26.1168 2.07794 4.19745 26.3957 1.98691 
2.14104 26.2815 4.04128 4.25681 24.4103 3.89553 0.109913 24.1683 4.00806 
4.44659 24.5712 -0.0875731 6.34598 24.4566 1.81684 8.26554 26.3826 1.79962 
6.40971 26.3869 3.89339 8.2962 24.1541 4.04261 6.181 26.4543 -0.0393293 
8.2103 24.4231 -0.300479 10.3795 26.3698 -0.148304 10.4003 24.3933 1.71454 
12.4698 26.285 1.8071 10.2485 26.4101 3.87358 12.179 24.1643 3.93133 
12.4543 24.2928 -0.362891 14.4626 26.2554 0.0592726 14.4808 24.289 1.99547 
16.4309 26.5548 1.85108 14.206 26.4097 3.91547 16.3527 24.3392 3.95625 
18.3808 24.2312 1.90716 22.2846 24.322 1.97406 20.2268 26.357 1.78454 
18.3283 26.2637 3.94464 20.3376 24.3852 3.85795 22.1781 26.3605 3.90695 
26.2877 24.3662 1.88567 24.1249 26.3054 1.94187 24.2863 24.4274 4.09628 
26.2252 26.4708 3.94496 30.29 24.2544 1.87053 28.3899 26.4445 1.84128 
28.0282 24.432 3.78367 30.2977 26.3037 3.85169 30.3267 26.2925 -0.159294 
34.2249 24.1951 1.69818 32.346 26.3214 1.97045 32.3055 24.1231 3.90311 
34.3348 26.4222 3.99039 32.2022 24.2789 -0.195028 36.2202 24.0798 -0.0737321 
38.1235 26.2259 0.00346181 38.2398 24.251 1.8416 36.1214 26.2757 1.83789 
36.0543 24.3289 3.94758 38.0464 26.4348 4.05007 2.21361 28.4737 1.9971 
0.0613597 30.465 1.95672 4.27181 28.4715 0.00101549 4.16906 30.545 1.87794 
2.13519 30.5079 3.79651 4.20455 28.3415 3.95488 0.253522 28.5208 4.01824 
6.27227 28.5016 1.86952 8.22401 30.4185 1.95878 6.17797 30.2825 3.93038 
8.24333 28.4251 3.9843 8.10817 28.4508 -0.101254 10.1661 28.4122 1.96318 
12.2281 28.3725 -0.0694805 12.3499 30.3637 1.71792 10.3503 30.5036 3.74938 
12.318 28.3731 4.07859 14.2598 28.504 2.06634 16.4566 30.4977 1.89495 
14.2312 30.4849 3.89416 16.3004 28.4609 3.92241 18.443 28.3831 1.90007 
22.2605 28.4705 1.92221 20.3101 30.5066 1.91847 18.3582 30.3794 3.97349 
20.3314 28.5118 3.82026 22.2561 30.544 3.89833 18.1826 30.4706 -0.327316 
24.1688 28.4099 -0.232897 26.1442 28.4348 1.94229 24.2078 30.4455 1.77736 
24.2461 28.4667 3.76327 26.2034 30.5242 3.96072 26.2384 30.3572 -0.192633 
30.253 30.378 -0.165247 30.288 28.3936 2.038 28.2933 30.4075 1.94949 
28.2909 28.452 4.036 30.2853 30.612 3.85013 32.3876 28.3788 0.0133971 
34.1235 30.4158 -0.247033 34.2633 28.4914 1.88046 32.2389 30.5892 1.82737 
32.3462 28.427 4.01789 34.2989 30.4037 4.01426 36.1144 28.4287 -0.276607 
38.2129 28.1992 1.83914 36.1659 30.4209 1.96139 36.1951 28.5094 3.89319 
38.147 30.4699 4.04928 2.1769 32.4228 1.91939 0.274653 34.5536 1.79662 
4.11948 34.5568 1.85942 2.27303 34.3897 3.90109 4.31049 32.4041 3.98308 
6.25567 32.5855 1.93567 8.35283 34.4599 1.98185 6.03813 34.701 4.08311 
8.12965 32.4728 3.86709 6.22432 34.4834 -0.118621 10.3201 32.3903 1.82467 
12.2704 34.566 1.86734 10.1826 34.5438 3.88823 12.271 32.4665 3.9231 
14.1654 32.4198 1.70274 16.175 34.3482 1.93801 14.318 34.3796 3.89619 
16.1953 32.3761 3.87815 18.3022 32.5134 1.86498 22.4699 32.5227 1.89168 
20.1918 34.293 1.84866 18.2545 34.5256 3.86723 20.4427 32.5253 4.08372 
22.2188 34.7311 3.67465 18.153 34.5154 -0.347043 20.3222 32.3788 -0.158492 
24.3005 32.4995 -0.282486 26.267 32.3808 1.91738 24.5175 34.4937 1.91495 
[...]
POINT_DATA 4000
FIELD FieldData 6
id 1 4000 int
4 8 43 402 405 445 441 12 47 
406 449 16 51 410 453 11 413 53 
20 55 414 457 417 24 59 63 418 
422 461 28 65 67 426 465 26 25 
30 32 71 430 469 429 36 75 434 
473 38 40 79 438 477 77 48 83 
85 442 481 485 44 81 42 52 87 
446 489 56 91 93 450 493 50 54 
60 95 454 497 64 99 103 458 462 
501 68 107 466 505 72 109 111 470 
509 74 76 115 474 513 78 80 117 
119 478 517 82 88 123 482 525 86 
92 127 486 529 90 96 131 490 533 
94 100 135 137 494 537 98 104 139 
143 498 502 541 108 147 506 545 110 
112 151 510 549 116 155 514 553 114 
84 521 120 159 518 557 157 122 128 
163 522 565 132 167 526 569 130 136 
171 173 530 573 140 175 534 577 138 
144 179 183 538 542 581 148 187 546 
585 185 150 152 189 191 550 589 156 
195 554 593 154 124 161 561 160 199 
558 597 197 168 203 208 562 601 602 
605 202 172 207 212 566 606 609 166 
170 176 211 216 570 610 613 174 180 
215 220 574 614 617 214 184 219 221 
223 224 578 582 618 621 622 188 227 
228 586 625 626 186 192 230 231 232 
590 629 630 190 229 194 196 235 236 
594 633 634 233 234 164 204 200 238 
239 240 598 637 638 237 243 244 248 
642 645 641 245 247 252 646 649 246 
249 250 251 256 650 653 253 254 255 
260 654 657 259 263 264 658 661 662 
267 268 665 666 271 272 669 670 270 
275 276 673 674 273 277 278 279 280 
677 678 283 284 285 288 682 685 681 
287 292 686 689 289 291 293 296 690 
693 295 300 694 697 299 303 304 698 
701 702 298 305 307 308 705 706 306 
310 311 312 709 710 313 314 315 316 
713 714 317 319 320 717 718 323 324 
328 722 725 327 332 726 729 326 331 
336 730 733 335 340 734 737 339 343 
344 738 741 742 338 341 345 347 348 
745 746 346 351 352 749 750 349 355 
356 753 754 354 721 359 360 757 758 
3 361 363 365 368 762 765 362 7 
409 367 372 766 769 371 373 376 770 
773 370 15 375 380 774 777 23 421 
19 379 381 382 383 384 778 781 782 
425 27 387 388 785 786 31 391 392 
789 790 35 433 395 396 793 794 401 
39 364 761 437 399 400 797 798 1 
37 397 404 408 443 802 845 407 412 
447 806 849 411 416 451 810 813 853 
420 455 814 857 817 424 459 463 818 
821 822 861 419 423 428 467 825 826 
865 427 432 471 829 830 869 431 436 
475 834 873 435 833 841 440 479 837 
838 877 439 448 483 842 885 444 452 
487 846 889 456 491 850 893 460 495 
854 897 464 499 503 858 862 901 468 
507 866 905 472 511 870 909 476 515 
874 913 881 480 519 878 917 488 523 
882 925 484 921 492 527 886 929 496 
531 890 933 500 535 894 937 504 539 
543 898 902 941 508 547 906 945 512 
551 910 949 516 555 914 953 520 559 
918 957 528 563 922 965 532 567 926 
969 536 571 930 973 540 575 934 977 
544 579 583 938 942 981 548 587 946 
985 552 591 950 989 556 595 954 993 
524 961 560 599 958 997 568 603 608 
962 1005 572 607 612 966 1006 1009 576 
611 616 970 1010 1013 580 615 620 974 
1014 1017 584 619 623 624 978 982 1018 
1021 1022 588 627 628 986 1025 1026 592 
631 632 990 1029 1030 596 635 636 994 
1033 604 564 1001 600 639 640 998 1037 
1038 1002 643 644 648 1042 1045 647 652 
1046 1049 651 656 1050 1053 655 660 1054 
1057 659 663 664 1058 1061 1062 667 668 
1065 1066 671 672 1069 1070 1034 675 676 
1073 1074 1041 679 680 1077 1078 683 688 
1082 1085 1081 687 692 1086 1089 691 696 
1090 1093 695 700 1094 1097 699 703 704 
1098 1101 1102 707 708 1105 1106 711 712 
1109 1110 715 716 1113 1114 684 719 720 
1117 1118 723 724 728 1122 1125 727 732 
1126 1129 731 736 1130 1133 735 740 1134 
1137 739 743 744 1138 1141 1142 747 748 
1145 1146 751 752 1149 1150 755 756 1153 
1154 1121 759 760 1157 1158 403 805 763 
768 1162 1165 1161 809 767 772 1166 1169 
771 776 1170 1173 415 775 780 1174 1177 
779 783 784 1178 1181 1182 787 788 1185 
1186 791 792 1189 1190 795 796 1193 1194 
801 764 799 800 1197 1198 808 843 1202 
1241 1245 1201 807 812 847 1206 1209 1249 
816 851 1210 1213 1253 820 855 1214 1257 
824 859 863 1218 1222 1261 823 1221 827 
828 867 1225 1226 1265 832 871 1230 1269 
831 1229 836 875 1234 1273 804 840 879 
1237 1238 1277 844 848 883 1242 1281 1285 
852 887 1246 1289 856 891 1250 1293 860 
895 1254 1297 864 899 903 1258 1262 1301 
868 907 1266 1305 872 911 1270 1309 876 
915 1274 1313 880 919 1278 1317 888 923 
1282 1325 1321 892 927 1286 1329 896 931 
1290 1333 900 935 1294 1337 904 939 943 
1298 1302 1341 908 947 1306 1345 912 951 
1310 1349 916 955 1314 1353 884 920 959 
1318 1357 928 963 1322 1365 932 967 1326 
1369 936 971 1330 1373 940 975 1334 1377 
1338 944 979 983 1342 1381 948 987 1346 
1385 952 991 1350 1389 956 995 1354 1393 
924 1361 960 999 1358 1397 968 1003 1008 
1362 1402 1405 1004 972 1007 1012 1366 1409 
976 1011 1016 1370 1410 1413 980 1015 1020 
1374 1414 1417 984 1019 1023 1024 1378 1382 
1418 1421 1422 988 1027 1028 1386 1425 1426 
992 1031 1032 1390 1429 1430 996 1035 1036 
1394 1433 1434 964 1401 1000 1039 1040 1398 
1437 1438 1043 1044 1048 1442 1445 1441 1406 
1047 1052 1446 1449 1051 1056 1450 1453 1055 
1060 1454 1457 1059 1063 1064 1458 1461 1462 
1067 1068 1465 1466 1071 1072 1469 1470 1075 
1076 1473 1474 1079 1080 1477 1478 1083 1088 
1482 1485 1087 1092 1486 1489 1091 1096 1490 
1493 1095 1100 1494 1497 1099 1103 1104 1498 
1501 1502 1107 1108 1505 1506 1111 1112 1509 
1510 1115 1116 1513 1514 1481 1084 1119 1120 
1517 1518 1123 1124 1128 1522 1525 1127 1132 
1526 1529 1131 1136 1530 1533 1135 1140 1534 
1537 1139 1143 1144 1538 1541 1542 1147 1148 
1545 1546 1151 1152 1549 1550 1155 1156 1553 
1554 1521 1159 1160 1557 1558 803 1205 1163 
1168 1562 1565 1167 1172 1566 1569 811 1171 
1176 1570 1573 815 1217 1175 1180 1574 1577 
819 1179 1183 1184 1578 1581 1582 1187 1188 
1585 1586 1191 1192 1589 1590 835 1233 1195 
1196 1593 1594 1561 839 1164 1199 1200 1597 
1598 1208 1243 1602 1605 1645 1641 1212 1247 
1606 1609 1649 1216 1251 1610 1653 1220 1255 
1614 1657 1219 1223 1224 1259 1263 1618 1622 
1661 1228 1267 1625 1626 1665 1232 1271 1630 
1669 1235 1236 1275 1634 1673 1204 1240 1279 
1638 1677 1239 1244 1248 1283 1642 1685 1252 
1287 1646 1689 1256 1291 1650 1693 1260 1295 
1654 1697 1299 1264 1303 1658 1662 1701 1268 
1307 1666 1705 1272 1311 1670 1709 1276 1315 
1674 1713 1681 1280 1319 1678 1717 1288 1323 
1682 1725 1292 1327 1686 1729 1296 1331 1690 
1733 1300 1335 1694 1737 1304 1339 1343 1698 
1702 1741 1704 1308 1347 1706 1745 1312 1351 
1710 1749 1316 1355 1714 1753 1284 1721 1320 
1359 1718 1757 1328 1363 1722 1761 1765 1332 
1367 1726 1769 1336 1371 1730 1773 1340 1375 
1734 1777 1344 1379 1383 1738 1742 1781 1348 
1387 1746 1785 1352 1391 1750 1789 1356 1395 
1754 1793 1324 1360 1399 1758 1797 1368 1403 
1404 1408 1762 1802 1805 1364 1372 1407 1412 
1766 1806 1809 1376 1411 1416 1770 1810 1813 
1380 1415 1420 1774 1814 1817 1384 1419 1423 
1424 1778 1782 1818 1821 1822 1388 1427 1428 
1786 1825 1826 1392 1431 1432 1790 1829 1830 
1396 1435 1436 1794 1833 1834 1801 1400 1439 
1440 1798 1837 1838 1443 1448 1841 1842 1845 
1447 1452 1846 1849 1451 1456 1850 1853 1455 
1460 1854 1857 1459 1463 1464 1858 1861 1862 
1467 1468 1865 1866 1471 1472 1869 1870 1475 
1476 1873 1874 1444 1479 1480 1877 1878 1483 
1484 1488 1881 1882 1885 1487 1492 1886 1889 
1491 1496 1890 1893 1495 1500 1894 1897 1499 
1503 1504 1898 1901 1902 1507 1508 1905 1906 
1511 1512 1909 1910 1515 1516 1913 1914 1519 
1520 1917 1918 1523 1528 1922 1925 1921 1527 
1532 1926 1929 1531 1536 1930 1933 1535 1540 
1934 1937 1539 1543 1544 1938 1941 1942 1547 
1548 1945 1946 1551 1552 1949 1950 1555 1556 
1953 1954 1524 1559 1560 1957 1958 1203 1563 
1564 1568 1962 1965 1961 1207 1567 1572 1966 
1969 1211 1613 1571 1576 1970 1973 1215 1617 
1575 1580 1974 1977 1621 1579 1583 1584 1978 
1981 1982 1227 1587 1588 1985 1986 1231 1629 
1591 1592 1989 1990 1633 1595 1596 1993 1994 
1601 1637 1599 1600 1997 1998 1608 1643 2001 
2002 2004 2008 2043 2045 2041 1612 1647 2006 
2012 2047 2049 1616 1651 2010 2016 2051 2053 
1611 2011 2013 1620 1655 2014 2020 2055 2057 
1615 2015 1624 1659 1663 2018 2019 2022 2023 
2024 2059 2061 2063 2021 1628 1667 2025 2026 
2028 2065 2027 2067 1632 1671 2030 2032 2069 
2071 1636 1675 2034 2036 2073 2075 1604 1640 
1679 2037 2038 2039 2040 2077 2079 1639 1648 
1683 2042 2048 2081 2083 2085 1652 1687 2046 
2052 2087 2089 1656 1691 2050 2056 2091 2093 
1660 1695 2054 2060 2095 2097 1699 2058 1664 
1703 2062 2064 2099 2101 2103 1668 1707 2066 
2068 2105 2107 1672 1711 2070 2072 2109 2111 
1676 1715 2074 2076 2113 2115 2044 1644 1680 
1719 2078 2080 2117 2119 1688 1723 2082 2084 
2088 2121 2123 2125 1692 1727 2086 2092 2127 
2129 1696 1731 2090 2096 2131 2133 1700 1735 
2094 2100 2135 2137 1739 1743 2098 2102 2104 
2139 2141 2143 1708 1747 2106 2108 2145 2147 
1712 1751 2110 2112 2149 2151 1716 1755 2114 
2116 2153 2155 1684 1720 1759 2118 2120 2157 
2159 1728 1763 2122 2128 2163 2165 2161 1732 
1767 2126 2132 2167 2169 1736 1771 2130 2136 
2171 2173 1740 1775 2134 2140 2175 2177 1783 
1744 1779 2138 2142 2144 2181 2183 1748 1787 
2146 2148 2185 2187 1752 1791 2150 2152 2189 
2191 1756 1795 2154 2156 2193 2195 1724 2124 
1760 1799 2158 2160 2197 2199 1764 1768 1803 
1804 1808 2162 2168 2202 2203 2205 2208 1772 
1807 1812 2166 2172 2206 2209 2212 2207 1776 
1811 1816 2170 2176 2210 2211 2213 2216 1780 
1815 1820 2174 2180 2214 2215 2217 2220 1784 
1819 1823 1824 2178 2182 2184 2218 2219 2221 
2222 2223 2224 1788 1827 1828 2186 2188 2225 
2226 2227 2228 1792 1831 1832 2190 2192 2229 
2230 2231 2232 1796 1835 1836 2194 2196 2233 
2234 2235 2236 2164 2204 2201 1800 1839 1840 
2198 2200 2237 2238 2239 2240 1843 1848 2242 
2243 2245 2248 1847 1852 2246 2247 2249 2252 
1851 1856 2250 2251 2253 2256 1855 1860 2254 
2255 2257 2260 1859 1863 1864 2258 2259 2261 
2262 2263 2264 1867 1868 2265 2266 2267 2268 
1871 1872 2269 2270 2271 2272 1875 1876 2273 
2274 2275 2276 2244 1844 2241 1879 1880 2277 
2278 2279 2280 1883 1888 2282 2283 2285 2288 
1887 1892 2286 2287 2289 1891 1896 2290 2293 
1895 1900 2294 2295 2297 2300 1899 1903 1904 
2298 2299 2301 2302 2303 2304 1907 1908 2305 
2306 2308 2307 1911 1912 2309 2310 2311 2312 
1915 1916 2313 2314 2315 2316 1884 2284 2281 
1919 1920 2317 2318 2319 2320 1923 1928 2322 
2323 2325 2328 1927 1932 2326 2327 2329 2332 
1931 1936 2330 2331 2333 2336 1935 1940 2334 
2335 2337 2340 1939 1943 1944 2338 2339 2341 
2342 2343 2344 1947 1948 2345 2346 2347 2348 
1951 1952 2349 2350 2351 2352 1955 1956 2353 
2354 2356 1924 2321 2324 1959 1960 2357 2358 
2359 2360 1603 2003 2005 1963 1964 1968 2362 
2363 2365 2368 2364 2009 1607 2007 1967 1972 
2366 2367 2369 2372 1971 1976 2370 2371 2373 
2376 2017 1975 1980 2374 2375 2377 2380 1623 
1619 1979 1983 1984 2378 2379 2381 2382 2383 
2384 1627 1987 1988 2385 2386 2387 2388 2029 
2031 1631 1991 1992 2389 2390 2391 2392 1635 
2033 2035 1995 1996 2393 2394 2395 2396 2361 
1999 2000 2397 2398 2399 2400 2402 2408 2443 
2445 2404 2406 2412 2447 2449 2410 2416 2451 
2453 2413 2414 2415 2420 2455 2457 2417 2418 
2422 2423 2424 2459 2461 2463 2419 2421 2425 
2426 2428 2465 2467 2427 2430 2432 2469 2471 
2434 2436 2473 2475 2441 2437 2438 2440 2477 
2479 2439 2442 2448 2483 2485 2446 2452 2487 
2489 2450 2456 2491 2493 2454 2460 2495 2497 
2458 2462 2464 2499 2501 2503 2466 2468 2505 
2507 2470 2472 2509 2511 2474 2476 2513 2515 
2444 2481 2478 2480 2517 2519 2482 2488 2523 
2525 2486 2492 2527 2529 2490 2496 2531 2533 
2494 2500 2535 2537 2498 2502 2504 2539 2541 
2543 2506 2508 2545 2547 2510 2512 2549 2551 
2514 2516 2553 2555 2484 2521 2518 2520 2557 
2559 2522 2528 2563 2565 2524 2526 2532 2567 
2569 2530 2536 2571 2573 2534 2540 2575 2577 
2179 2538 2542 2544 2579 2581 2583 2546 2548 
2585 2587 2550 2552 2589 2591 2554 2556 2593 
2595 2561 2558 2560 2597 2599 2562 2568 2602 
2603 2605 2608 2564 2566 2572 2606 2607 2609 
2612 2570 2576 2610 2611 2613 2616 2574 2580 
2614 2615 2617 2620 2578 2582 2584 2618 2619 
2621 2622 2623 2624 2586 2588 2625 2626 2627 
2628 2590 2592 2629 2630 2631 2632 2594 2596 
2633 2634 2635 2636 2601 2604 2598 2600 2637 
2638 2639 2640 2641 2642 2643 2645 2648 2646 
2647 2649 2652 2650 2651 2653 2656 2654 2655 
2657 2660 2658 2659 2661 2662 2663 2664 2665 
2666 2667 2668 2669 2670 2671 2672 2673 2674 
2675 2676 2644 2677 2678 2679 2680 2682 2683 
2685 2688 2292 2686 2687 2689 2692 2291 2296 
2690 2691 2693 2696 2694 2695 2697 2700 2698 
2699 2701 2702 2703 2704 2705 2706 2707 2708 
2709 2710 2711 2712 2713 2714 2715 2716 2684 
2681 2717 2718 2719 2720 2721 2722 2723 2725 
2728 2726 2727 2729 2732 2730 2731 2733 2736 
2734 2735 2737 2740 2738 2739 2741 2742 2743 
2744 2745 2746 2747 2748 2749 2750 2751 2752 
2355 2753 2754 2755 2756 2724 2757 2758 2759 
2760 2405 2401 2403 2762 2763 2765 2768 2761 
2407 2409 2766 2767 2769 2772 2411 2770 2771 
2773 2776 2774 2775 2777 2780 2778 2779 2781 
2782 2783 2784 2785 2786 2787 2788 2429 2431 
2789 2790 2791 2792 2433 2435 2793 2794 2795 
2796 2764 2797 2798 2799 2800 2802 2805 2808 
2841 2843 2845 2804 2806 2807 2812 2847 2849 
2810 2811 2813 2816 2851 2853 2814 2820 2855 
2857 2817 2818 2822 2823 2824 2859 2861 2863 
2825 2826 2827 2828 2865 2867 2829 2830 2831 
2832 2869 2871 2834 2836 2873 2875 2833 2835 
2838 2840 2877 2879 2839 2842 2844 2848 2883 
2885 2881 2846 2852 2887 2889 2850 2856 2891 
2893 2854 2860 2895 2897 2858 2862 2864 2899 
2901 2903 2866 2868 2905 2907 2870 2872 2909 
2911 2874 2876 2913 2915 2878 2880 2917 2919 
2882 2888 2921 2923 2925 2884 2886 2892 2927 
2929 2890 2896 2931 2933 2894 2900 2935 2937 
2898 2902 2904 2939 2941 2943 2906 2908 2945 
2947 2910 2912 2949 2951 2914 2916 2953 2955 
2918 2920 2957 2959 2922 2928 2963 2965 2926 
2932 2967 2969 2930 2936 2971 2973 2934 2940 
2975 2977 2938 2942 2944 2979 2981 2983 2946 
2948 2985 2987 2950 2952 2989 2991 2954 2956 
2993 2995 2961 2924 2958 2960 2997 2999 2962 
2968 3001 3002 3003 3005 3008 2966 2972 3006 
3007 3009 3012 2970 2976 3010 3011 3013 3016 
2974 2980 3014 3015 3017 3020 2978 2982 2984 
3018 3019 3021 3022 3023 3024 2986 2988 3025 
3026 3027 3028 2990 2992 3029 3030 3031 3032 
2994 2996 3033 3034 3035 3036 2964 3004 2998 
3000 3037 3038 3039 3040 3042 3043 3045 3048 
3044 3046 3047 3049 3052 3050 3051 3053 3056 
3054 3055 3057 3060 3058 3059 3061 3062 3063 
3064 3065 3066 3067 3068 3069 3070 3071 3072 
3073 3074 3075 3076 3041 3077 3078 3079 3080 
3082 3083 3085 3088 3086 3087 3089 3092 3090 
3091 3093 3096 3094 3095 3097 3100 3098 3099 
3101 3102 3103 3104 3105 3106 3107 3108 3109 
3110 3111 3112 3113 3114 3115 3116 3084 3081 
3117 3118 3119 3120 3122 3123 3125 3128 3124 
3126 3127 3129 3132 3130 3131 3133 3136 3134 
3135 3137 3140 3138 3139 3141 3142 3143 3144 
3145 3146 3147 3148 3149 3150 3151 3152 3153 
3154 3155 3156 3121 3157 3158 3159 3160 2803 
3162 3163 3165 3168 3164 2809 3166 3167 3169 
3172 3170 3171 3173 3176 2815 3174 3175 3177 
3180 2819 2821 3178 3179 3181 3182 3183 3184 
3185 3186 3187 3188 3189 3190 3191 3192 3193 
3194 3195 3196 2801 2837 3161 3197 3198 3199 
3200 3202 3205 3208 3243 3245 3204 3241 3206 
3209 3212 3247 3249 3207 3210 3211 3216 3251 
3253 3213 3214 3220 3255 3257 3218 3222 3223 
3224 3259 3261 3263 3219 3225 3226 3227 3228 
3265 3267 3230 3232 3269 3271 3231 3234 3236 
3273 3275 3233 3237 3238 3240 3277 3279 3242 
3248 3283 3285 3244 3281 3246 3252 3287 3289 
3250 3256 3291 3293 3254 3260 3295 3297 3258 
3262 3264 3299 3301 3303 3266 3268 3305 3307 
3270 3272 3309 3311 3274 3276 3313 3315 3278 
3280 3317 3319 3282 3288 3323 3325 3284 3321 
3286 3292 3327 3329 3290 3296 3331 3333 3294 
3300 3335 3337 3298 3302 3304 3339 3341 3343 
3306 3308 3345 3347 3310 3312 3349 3351 3314 
3316 3353 3355 3318 3320 3357 3359 3322 3328 
3363 3365 3326 3332 3367 3369 3330 3336 3371 
3373 3334 3340 3375 3377 3338 3342 3344 3379 
3381 3383 3346 3348 3385 3387 3386 3350 3352 
3389 3391 3354 3356 3393 3395 3324 3361 3358 
3360 3397 3399 3362 3368 3402 3403 3405 3364 
3404 3408 3366 3372 3406 3407 3409 3412 3370 
3376 3410 3411 3413 3416 3374 3380 3414 3415 
3417 3420 3378 3382 3384 3418 3419 3421 3422 
3423 3424 3388 3425 3426 3427 3428 3390 3392 
3429 3430 3431 3432 3394 3396 3433 3434 3435 
3436 3401 3398 3400 3437 3438 3439 3440 3442 
3443 3445 3448 3446 3447 3449 3452 3450 3451 
3453 3456 3454 3455 3457 3460 3458 3459 3461 
3462 3463 3464 3465 3466 3467 3468 3469 3470 
3471 3472 3473 3474 3475 3476 3441 3444 3477 
3478 3479 3480 3482 3483 3485 3488 3481 3484 
3486 3487 3489 3492 3490 3491 3493 3496 3494 
3495 3497 3500 3498 3499 3501 3502 3503 3504 
3505 3506 3507 3508 3509 3510 3511 3512 3513 
3514 3515 3516 3517 3518 3519 3520 3522 3523 
3525 3528 3526 3527 3529 3532 3530 3531 3533 
3536 3534 3535 3537 3540 3538 3539 3541 3542 
3543 3544 3545 3546 3547 3548 3549 3550 3551 
3552 3553 3554 3555 3556 3521 3524 3557 3558 
3559 3560 3203 3562 3563 3565 3568 3566 3567 
3569 3572 3570 3571 3573 3576 3215 3217 3574 
3575 3577 3580 3221 3578 3579 3581 3582 3583 
3584 3585 3586 3587 3588 3229 3589 3590 3591 
3592 3235 3593 3594 3595 3596 3239 3561 3201 
3564 3597 3598 3599 3600 2 45 5 3602 
3608 3641 3643 3645 41 9 49 6 3606 
3612 3647 3649 3609 10 3610 3616 3651 3653 
13 14 57 3614 3615 3620 3655 3657 22 
61 18 21 3618 3622 3623 3624 3659 3661 
3663 3625 3626 3627 3628 3665 3667 69 3630 
3632 3669 3671 3629 3631 33 34 73 3634 
3636 3673 3675 3633 3604 3638 3640 3677 3679 
3639 3642 3648 3683 3685 3644 3681 46 89 
3646 3652 3687 3689 3650 3656 3691 3693 97 
3654 3660 3695 3697 58 62 101 3658 3662 
3664 3699 3701 3703 66 105 3666 3668 3705 
3707 70 3670 3672 3709 3711 113 3674 3676 
3713 3715 3678 3680 3717 3719 125 3682 3688 
3723 3725 129 3686 3692 3727 3729 133 3690 
3696 3731 3733 3694 3700 3735 3737 141 102 
3698 3702 3704 3739 3741 3743 106 145 3706 
3708 3745 3747 149 3710 3712 3749 3751 153 
3714 3716 3753 3755 121 3684 3721 118 3718 
3720 3757 3759 165 3722 3728 3763 3765 3761 
126 169 3726 3732 3767 3769 3772 3730 3736 
3771 3773 134 177 3734 3740 3775 3777 142 
181 3738 3742 3744 3779 3781 3783 146 3746 
3748 3785 3787 3750 3752 3789 3791 193 3754 
3756 3793 3795 158 3724 3758 3760 3797 3799 
162 201 205 3762 3768 3802 3803 3804 3805 
3808 206 209 3766 3806 3807 3809 3812 210 
213 3770 3776 3810 3811 3813 3816 217 3774 
3780 3815 3817 3820 3814 178 182 218 222 
3778 3782 3784 3818 3819 3821 3822 3823 3824 
225 226 3786 3788 3825 3826 3827 3828 3790 
3792 3829 3830 3831 3832 3794 3796 3833 3834 
3835 3836 198 3764 3801 3798 3800 3837 3838 
3839 3840 242 241 3841 3842 3843 3845 3848 
3844 3846 3847 3849 3852 3850 3851 3853 3856 
257 3854 3855 3857 3860 258 262 3859 261 
3858 3861 3862 3863 3864 266 265 3865 3866 
3867 3868 269 3869 3870 3871 3872 274 3873 
3874 3875 3876 3877 3878 3879 3880 281 282 
3881 3882 3883 3885 3888 3884 286 3886 3887 
3889 3892 290 3890 3891 3893 3896 294 297 
3894 3895 3897 3900 302 301 3898 3899 3901 
3902 3903 3904 3905 3906 3907 3908 309 3909 
3910 3911 3912 3913 3914 3915 3916 318 3917 
3918 3919 3920 325 322 3922 3923 3925 3928 
321 3924 329 3926 3927 3929 3932 330 333 
3930 3931 3933 3936 334 337 3934 3935 3937 
3940 342 3938 3939 3941 3942 3943 3944 3945 
3946 3947 3948 350 3949 3950 3951 3952 353 
3953 3954 3955 3956 357 358 3921 3957 3958 
3959 3960 3603 3605 3962 3963 3965 3968 3961 
366 369 3607 3966 3967 3969 3972 3613 3611 
3970 3971 3973 3976 17 374 3617 377 3974 
3975 3977 3980 378 3621 3619 3978 3979 3981 
3982 3983 3984 385 386 3985 3986 3987 3988 
389 390 29 3989 3990 3991 3992 393 394 
3635 3993 3994 3995 3996 398 3964 3601 3637 
3997 3998 3999 4000 
type 1 4000 int
1 1 1 1 1 1 1 1 1 
1 1 1 1 1 1 1 1 1 
1 1 1 1 1 1 1 1 1 
1 1 1 1 1 1 1 1 1 
1 1 1 1 1 1 1 1 1 
1 1 1 1 1 1 1 1 1 
1 1 1 1 1 1 1 1 1 
1 1 1 1 1 1 1 1 1 
1 1 1 1 1 1 1 1 1 
1 1 1 1 1 1 1 1 1 
1 1 1 1 1 1 1 1 1 
1 1 1 1 1 1 1 1 1 
1 1 1 1 1 1 1 1 1 
1 1 1 1 1 1 1 1 1 
1 1 1 1 1 1 1 1 1 
1 1 1 1 1 1 1 1 1 
1 1 1 1 1 1 1 1 1 
1 1 1 1 1 1 1 1 1 
1 1 1 1 1 1 1 1 1 
1 1 1 1 1 1 1 1 1 
1 1 1 1 1 1 1 1 1 
1 1 1 1 1 1 1 1 1 
1 1 1 1 1 1 1 1 1 
1 1 1 1 1 1 1 1 1 
1 1 1 1 1 1 1 1 1 
1 1 1 1 1 1 1 1 1 
1 1 1 1 1 1 1 1 1 
1 1 1 1 1 1 1 1 1 
1 1 1 1 1 1 1 1 1 
1 1 1 1 1 1 1 1 1 
1 1 1 1 1 1 1 1 1 