# vtk DataFile Version 4.0
Generated by LAMMPS
ASCII
DATASET POLYDATA
POINTS 4000 float
0.65426 1.63663 1.78311 4.59775 1.67509 1.71717 2.6373 3.7198 1.73239 
2.83918 1.60277 3.75783 4.72147 3.66118 3.61202 0.698 3.63299 3.59548 
2.53656 -0.363419 1.54964 0.830965 -0.239184 4.02713 4.37891 3.79138 -0.315424 
4.64304 -0.372761 -0.293578 8.69603 1.52045 1.59021 6.56372 3.61849 1.67098 
6.481 1.5874 3.75834 8.49299 3.63907 3.62791 6.59533 -0.45196 1.67213 
8.43563 -0.510455 3.66722 6.51156 1.83983 -0.386126 12.1648 1.71212 1.62001 
10.4927 3.65491 1.50731 10.2859 1.58747 3.89715 12.2619 3.86037 3.5897 
10.403 -0.491544 1.72724 16.2072 1.77877 1.6059 14.3282 3.84353 1.52885 
14.3179 1.81355 3.63619 16.4142 3.67387 3.75262 16.2206 -0.301395 3.67508 
14.3107 -0.266859 1.74159 16.2822 3.72115 -0.372452 16.1974 -0.315022 -0.403378 
20.084 1.73849 1.54977 18.253 3.76561 1.62455 22.1958 3.87619 1.58178 
18.4859 1.74422 3.80248 22.1234 1.61214 3.57988 20.2867 3.80125 3.60668 
20.3271 -0.27436 3.68437 18.1325 -0.296662 1.73771 23.9979 1.67193 1.67096 
26.0999 3.66796 1.58941 25.9503 1.62666 3.72475 24.128 3.68833 3.79472 
27.9581 1.58593 1.60336 29.8738 3.61414 1.67777 29.9319 1.82916 3.78047 
28.0163 3.72696 3.64616 29.8974 -0.371896 1.76443 27.9881 3.64402 -0.327149 
31.9363 1.73819 1.68605 34.0382 3.74127 1.79153 33.9113 1.52479 4.0434 
31.8408 3.74796 3.86103 31.9064 -0.388196 3.79407 32.1138 3.80004 -0.155316 
35.6951 1.6658 1.92678 37.6448 3.59321 1.81739 37.7927 1.62191 3.84225 
35.7961 3.89714 3.8868 35.8207 3.73218 -0.30824 39.7087 3.58949 -0.341275 
4.6194 5.67553 1.72941 2.48718 7.8901 1.66136 2.68043 5.7838 3.79863 
0.485464 7.74723 3.57728 4.5365 7.82311 3.70412 0.497195 7.84192 -0.484925 
4.53669 8.02762 -0.366451 2.63092 5.93448 -0.366944 8.40669 5.72267 1.7548 
6.57334 7.86593 1.67238 6.57094 5.8316 3.78857 8.46122 7.98538 3.84158 
12.5078 5.91023 1.58759 10.4846 7.78084 1.58877 10.3761 5.85781 3.59646 
12.2721 7.8716 3.77782 16.4506 5.74574 1.69034 14.424 7.96039 1.66706 
14.4752 5.86012 3.83538 16.3024 7.91692 3.57246 14.7037 5.98698 -0.448721 
16.6251 8.06833 -0.259884 20.2835 5.88272 1.66714 18.4124 7.87116 1.64223 
22.3942 8.14884 1.6974 18.4028 5.86909 3.58194 22.3325 5.74082 3.58219 
20.4613 7.82027 3.64711 18.0788 5.81502 -0.498875 22.24 5.92285 -0.544981 
24.2045 5.74644 1.73291 25.9287 7.96117 1.65798 26.2008 5.78588 3.7166 
24.2656 7.96454 3.94292 28.0062 5.79688 1.531 30.0185 8.01352 1.67815 
29.9034 5.74106 3.47719 27.9106 7.73096 3.57646 33.9115 5.94443 -0.433965 
31.8869 5.86067 1.73185 34 7.99817 1.96105 33.8674 5.7609 3.74766 
31.8435 7.92075 3.73797 32.0173 8.02515 -0.251576 39.8122 5.76011 1.59616 
35.7668 6.02555 1.64317 35.7831 8.07958 -0.31076 37.9426 7.97609 1.66718 
37.9439 5.70023 3.71792 36.0546 7.95446 3.6901 2.50369 9.91519 -0.390385 
4.57022 9.84039 1.5724 2.69576 12.1214 1.62778 2.5968 9.96433 3.80886 
4.49848 11.9296 3.47912 0.580557 9.97396 1.77517 4.65176 12.0058 -0.226981 
8.54381 9.81038 1.8315 6.54154 11.972 1.64976 6.47955 9.951 3.61654 
8.48321 11.9343 3.7502 8.59537 11.8894 -0.274247 6.68945 9.97161 -0.41614 
12.3282 9.84634 1.64635 10.5271 11.8926 1.77224 10.4216 10.0726 3.8349 
12.3633 11.9219 3.77497 12.6142 11.9373 -0.536362 16.5221 9.91516 1.7391 
14.4037 12.0053 1.50947 16.43 11.8009 -0.417388 14.3714 10.0016 3.64073 
16.307 12.0178 3.66462 20.2995 10.1555 1.48646 18.3266 12.1091 1.75222 
22.2277 12.1153 1.85835 18.4168 9.85275 3.50112 22.2352 10.0052 3.88987 
20.2688 11.9224 3.78295 20.2398 12.0762 -0.400676 24.2748 10.1699 1.67593 
26.1316 12.1089 1.61133 26.1966 9.97729 3.69438 24.2702 11.9494 3.90744 
24.2863 12.068 -0.295439 26.0867 9.90951 -0.373232 29.9409 10.0502 -0.248829 
28.0855 9.9733 1.61653 30.0961 12.0145 1.71026 29.9848 9.94446 3.62604 
27.9499 11.8906 3.77638 31.9923 9.97271 1.52459 34.0527 12.1777 1.77433 
34.1055 10.1162 3.67168 32.1493 11.925 3.51899 39.8844 12.2296 3.59652 
39.9599 11.9368 -0.503799 36.0781 10.2452 1.53775 37.8347 12.0985 1.48777 
37.9214 10.2487 3.84377 35.9665 12.1792 3.75268 37.8566 9.97719 -0.549114 
4.64095 14.1064 1.69001 2.61596 16.1652 1.679 2.72694 14.0282 3.75817 
4.60101 16.1228 3.62799 0.713829 16.2384 -0.512102 0.598335 16.2428 3.7224 
4.59093 16.1767 -0.344184 8.65197 13.9712 1.70018 6.64767 16.1783 1.6982 
6.70907 14.1586 3.73009 8.62286 15.9809 3.61691 6.58501 14.004 -0.396975 
8.3633 16.0501 -0.292708 10.4572 13.9158 -0.690658 12.4255 14.0078 1.50828 
10.4725 15.9408 1.71062 12.1932 15.9913 -0.393968 10.4864 14.0234 3.78377 
12.5987 16.0728 3.78722 16.3345 14.0055 1.68913 14.5004 16.1509 1.49864 
14.4462 14.0232 3.64548 16.3008 16.0553 3.60821 16.4379 16.2824 -0.512342 
20.1553 14.0654 1.82178 18.2403 16.1312 1.72768 22.243 16.3387 1.79256 
18.2946 13.9772 3.89582 22.147 14.226 3.73754 19.9876 16.0672 3.88233 
24.1524 14.0575 1.75797 26.0934 16.0934 1.68758 26.2194 13.9778 3.82409 
24.1378 16.1089 3.71413 28.1515 13.9301 1.76082 28.1637 16.2778 -0.321457 
30.1393 16.108 1.82836 29.9981 13.9776 3.70431 28.061 15.9864 3.71848 
32.0226 13.9987 1.76993 33.92 16.1432 1.72608 33.9872 14.1328 3.87632 
32.0377 16.0664 3.86598 33.9982 14.1004 -0.47625 39.8186 14.1721 1.6616 
36.0508 14.2418 1.66093 37.9128 16.1791 1.53827 37.9321 14.1289 3.89846 
35.8903 16.1631 3.74008 4.63899 18.3722 1.7377 2.51153 20.4395 1.67031 
4.47502 22.4584 1.63927 2.59322 18.1592 3.63384 0.620587 20.3795 3.7688 
2.613 22.4087 3.62619 4.64428 20.3069 3.76578 4.57151 20.2855 -0.350832 
0.594361 18.1683 1.79155 0.526922 20.2693 -0.347391 2.67073 22.303 -0.50601 
2.44065 18.3203 -0.39562 8.56022 18.2234 1.68181 6.67265 20.3178 1.74498 
8.62361 22.4111 1.72443 6.68952 18.1229 3.69042 6.56539 22.2546 3.75158 
8.74603 20.358 3.70505 12.4831 18.1464 1.68694 10.5232 20.2636 1.51203 
12.2614 22.2686 1.62099 10.6344 18.1013 3.68017 10.543 22.2438 3.66587 
12.4925 20.2072 3.62926 10.549 22.2471 -0.508002 12.5623 20.0293 -0.419354 
16.5412 18.267 1.58698 14.5794 20.1559 1.68043 16.3951 22.3312 1.92794 
14.5544 18.0941 3.71471 14.3855 22.1627 3.69333 16.3622 20.2696 3.85879 
20.16 18.2172 1.72452 18.3823 20.3868 1.8137 22.2734 20.1318 1.83936 
20.4154 22.3783 1.82467 18.2073 18.1976 3.81826 22.1696 18.1975 3.90086 
18.4025 22.2014 3.84916 20.23 20.314 3.86286 22.3122 22.1586 3.76127 
22.1874 22.3213 -0.180871 22.2972 18.2058 -0.42309 24.2225 18.1888 1.76406 
26.1374 20.2427 1.69423 24.3262 22.1297 1.79002 26.2585 18.1612 3.83874 
24.3321 20.248 3.78124 26.2051 22.314 3.85608 24.2327 20.1314 -0.271735 
28.223 18.2835 1.7716 30.0587 22.3369 -0.345768 30.1834 20.3531 1.63216 
28.1793 22.4583 1.75333 30.1279 18.1701 3.82916 28.1477 20.2353 3.63187 
30.0889 22.2296 3.77689 28.0756 20.292 -0.303171 31.9339 18.0424 1.63075 
34.0116 20.2916 1.53473 32.0451 22.4039 1.72491 33.8407 18.2314 3.68154 
32.0218 20.1959 3.70802 34.1567 22.4863 3.72713 33.8153 22.4007 -0.359414 
39.8885 22.3865 1.47722 35.8596 18.164 1.54285 37.8823 22.4445 -0.458944 
37.7911 20.2317 1.60311 35.7907 22.2681 1.60363 37.8153 18.32 3.60463 
35.8972 20.2372 3.76029 37.8867 22.3561 3.76328 37.7946 18.1259 -0.530041 
2.66697 24.4002 1.59166 4.84847 26.384 1.72894 2.70212 26.4444 3.72051 
4.57372 24.575 3.79407 4.58965 24.4212 -0.452416 6.60748 24.4535 1.6314 
8.57989 26.5216 1.72312 6.57583 26.4789 3.84577 8.58036 24.2751 3.7055 
10.5194 26.3328 -0.410608 10.6263 24.4353 1.53812 12.4021 26.5096 1.77278 
10.5075 26.3038 3.70279 12.4711 24.3345 3.64616 12.5745 24.1101 -0.400737 
14.4175 24.4423 1.65624 16.3906 26.5676 1.86922 14.3635 26.2659 3.93843 
16.3413 24.3069 3.84916 18.2695 24.5266 1.84614 22.3059 24.4088 1.84664 
20.376 26.4652 1.755 18.4424 26.3446 3.70863 20.3628 24.3221 3.81035 
22.3175 26.4718 3.86276 22.2662 26.4762 -0.271537 20.1855 24.485 -0.316679 
26.203 24.2218 1.63693 24.1993 26.4173 1.68999 24.1872 24.3764 3.93163 
26.1884 26.4937 3.7518 30.209 24.4219 1.81086 28.2682 26.4171 1.75927 
28.0306 24.3448 3.69142 29.9559 26.3712 3.8852 33.9223 24.4747 1.78077 
32.1908 26.5325 1.58407 32.0465 24.4787 3.78041 34.1139 26.5233 3.63053 
31.9632 24.4278 -0.379281 34.0528 26.3404 -0.437883 39.7646 26.4447 1.66103 
39.8924 24.4634 3.80217 37.8752 24.3847 1.7945 36.0292 26.4341 1.71183 
36.0045 24.4611 3.77259 37.8664 26.5175 3.80316 35.9185 24.3673 -0.368212 
37.8018 26.3453 -0.399809 2.82037 28.3088 1.56655 0.817512 30.4296 1.5333 
4.40399 30.5572 1.63804 2.55535 30.6843 3.7838 4.57972 28.485 3.73198 
6.67532 28.5627 1.75512 8.44865 30.7197 1.83178 6.49093 30.7223 3.69587 
8.63593 28.3021 3.91614 10.5392 28.4954 1.76192 12.4741 30.5277 1.81646 
10.3158 30.4383 3.84463 12.5835 28.3131 3.84588 14.3816 28.5099 1.75875 
16.3162 30.4985 1.80106 14.4681 30.4187 3.99275 16.4346 28.4448 3.77913 
18.4229 28.4769 1.70101 22.2592 28.5705 1.82191 20.2778 30.4986 1.76856 
18.3474 30.5628 3.75688 20.1633 28.5216 3.90954 22.1975 30.6125 3.69426 
22.2183 30.4244 -0.220124 18.211 30.4729 -0.219521 26.0752 28.5116 1.7552 
24.3 30.6854 1.85607 24.1507 28.6138 3.82557 26.1074 30.609 3.90325 
30.0581 28.5144 1.76583 28.274 30.5637 1.77744 28.1737 28.6147 3.83504 
30.1872 30.4987 3.80538 32.1979 28.6651 -0.435914 33.9814 28.5589 1.76764 
32.056 30.7039 1.64635 31.9877 28.4967 3.66252 33.9464 30.6783 3.77461 
39.993 28.5032 3.71157 37.8694 28.5313 1.62457 36.0014 30.584 1.73919 
35.8858 28.5862 3.79342 37.9666 30.6593 3.66784 37.8979 30.5679 -0.429872 
2.5619 32.6709 1.6722 4.41154 34.6637 1.58867 2.58621 34.771 3.73912 
4.38856 32.6813 3.86633 0.739296 34.7952 1.59869 4.56154 32.498 -0.320304 
6.29159 32.6608 1.68538 8.50101 34.6929 1.69338 6.43193 34.5676 3.74894 
8.39403 32.6548 4.00313 10.4754 32.591 1.69086 12.4407 34.6653 1.75496 
10.5555 34.564 3.85706 12.5491 32.3364 3.9901 14.3134 32.5366 1.86038 
16.2012 34.7277 1.54459 14.5481 34.688 3.63 16.3449 32.5835 3.67025 
14.2866 34.5582 -0.377673 18.2752 32.6652 1.49474 21.9893 32.5977 1.60731 
20.1411 34.6936 1.5481 18.1249 34.7172 3.80351 20.152 32.6949 3.70524 
22.1121 34.5812 3.7283 22.4236 34.6499 -0.276005 26.1201 32.617 1.71766 
[...]
POINT_DATA 4000
FIELD FieldData 6
id 1 4000 int
4 8 43 402 445 441 3 401 45 
5 12 47 406 449 7 409 6 16 
51 410 453 11 20 55 414 457 417 
15 57 17 24 59 63 418 422 461 
421 19 28 67 426 465 32 71 430 
469 31 69 36 75 434 473 433 73 
40 79 438 477 77 41 48 83 442 
481 485 81 85 42 52 87 446 489 
56 91 450 493 60 95 454 497 54 
97 64 99 103 458 462 501 58 62 
68 107 466 505 72 111 470 509 74 
76 115 474 513 113 44 80 117 119 
478 517 82 88 123 482 525 84 125 
92 127 486 529 129 86 96 131 490 
533 133 100 135 137 494 537 104 139 
143 498 502 541 141 108 147 506 545 
145 106 110 112 151 510 549 116 155 
514 553 521 121 120 159 518 557 118 
128 163 522 565 161 561 165 132 167 
526 569 126 169 130 136 171 173 530 
573 140 175 534 577 177 144 179 183 
538 542 581 148 187 546 585 152 189 
191 550 589 156 195 554 593 154 124 
160 199 558 597 168 203 208 562 601 
602 605 205 164 201 202 162 172 207 
212 566 606 609 176 211 216 570 610 
613 210 213 180 215 220 574 614 617 
184 219 223 224 578 582 618 621 622 
222 182 188 227 228 586 625 626 225 
192 230 231 232 590 629 630 229 196 
235 236 594 633 634 234 204 200 238 
239 240 598 637 638 198 243 248 642 
645 245 247 252 646 649 250 251 256 
650 653 253 255 260 654 657 259 263 
264 658 661 662 262 261 267 268 665 
666 271 272 669 670 275 276 673 674 
273 274 244 641 279 280 677 678 277 
278 283 284 288 682 685 287 292 686 
689 291 296 690 693 295 300 694 697 
299 303 304 698 701 702 302 298 307 
308 705 706 311 312 709 710 313 315 
316 713 714 681 319 320 717 718 318 
323 328 722 725 324 325 327 332 726 
729 331 336 730 733 335 340 734 737 
334 339 343 344 738 741 742 342 347 
348 745 746 351 352 749 750 355 356 
753 754 721 359 360 757 758 357 358 
405 361 363 368 762 765 761 365 367 
372 766 769 413 371 376 770 773 370 
375 380 774 777 377 23 379 383 384 
778 781 782 378 381 382 425 27 387 
388 785 786 385 386 429 391 392 789 
790 389 35 395 396 793 794 393 394 
437 364 39 399 400 797 798 37 404 
408 443 802 845 841 403 412 447 806 
849 809 411 416 451 810 813 853 420 
455 814 857 415 424 459 463 818 821 
822 861 419 423 428 467 825 826 865 
427 432 471 830 869 436 475 834 873 
833 440 479 838 877 801 448 483 842 
885 444 452 487 846 889 456 491 850 
893 460 495 854 897 464 499 503 858 
862 901 468 507 866 905 472 511 870 
909 476 515 874 913 881 480 519 878 
917 488 523 882 925 492 527 886 929 
496 531 890 933 500 535 894 937 504 
539 543 898 902 941 508 547 906 945 
512 551 910 949 516 555 914 953 484 
921 520 559 918 957 528 563 922 965 
961 532 567 926 969 536 571 930 973 
540 575 934 977 544 579 583 938 942 
981 548 587 946 985 986 552 591 950 
989 556 595 954 993 524 560 599 958 
997 568 603 608 962 1005 604 1001 1002 
572 607 612 966 1009 576 611 616 970 
1010 1013 580 615 620 974 1017 584 619 
623 624 978 982 1018 1021 1022 588 627 
628 1025 1026 592 631 632 990 1029 1030 
596 635 636 994 1033 1034 564 600 639 
640 998 1037 1038 643 648 1042 1045 644 
1006 647 652 1046 1049 651 656 1050 1053 
1014 655 660 1054 1057 659 663 664 1058 
1061 1062 667 668 1065 1066 671 672 1069 
1070 675 676 1073 1074 1041 679 680 1077 
1078 683 688 1082 1085 1081 684 687 692 
1086 1089 691 696 1090 1093 695 700 1094 
1097 699 704 1098 1101 1102 703 707 708 
1105 1106 711 712 1109 1110 715 716 1113 
1114 719 720 1117 1118 723 728 1122 1125 
724 1121 727 732 1126 1129 731 736 1130 
1133 735 740 1134 1137 739 743 744 1138 
1141 1142 747 748 1145 1146 751 752 1149 
1150 755 756 1153 1154 759 760 1157 1158 
805 763 768 1162 1165 1161 764 407 767 
772 1166 1169 771 776 1170 1173 817 775 
780 1174 1177 779 783 784 1178 1181 1182 
787 788 1185 1186 829 431 791 792 1189 
1190 435 795 796 1193 1194 837 439 799 
800 1197 1198 808 843 1202 1241 1245 803 
812 847 1206 1249 816 851 1210 1253 1213 
820 855 1214 1257 815 1217 824 859 863 
1218 1222 1261 1221 819 823 828 867 1226 
1265 832 871 1230 1269 831 1229 836 875 
1234 1273 804 840 879 1238 1277 844 848 
883 1242 1285 1281 852 887 1246 1289 856 
891 1250 1293 860 895 1254 1297 864 899 
903 1258 1262 1301 868 907 1266 1305 872 
911 1270 1309 876 915 1274 1313 880 919 
1278 1317 888 923 1282 1325 892 927 1286 
1329 896 931 1290 1333 900 935 1294 1337 
904 939 943 1298 1302 1341 908 947 1306 
1345 912 951 1310 1349 916 955 1314 1353 
1321 884 920 959 1318 1357 928 963 1322 
1365 924 932 967 1326 1369 936 971 1330 
1373 940 975 1334 1377 1338 944 979 983 
1342 1381 948 987 1346 1385 988 952 991 
1350 1389 956 995 1354 1393 1361 960 999 
1358 1397 968 1003 1008 1362 1402 1405 1401 
1004 964 972 1007 1012 1366 1409 1406 976 
1011 1016 1370 1410 1413 980 1015 1020 1374 
1414 1417 984 1019 1023 1024 1378 1382 1418 
1421 1422 1027 1028 1386 1425 1426 992 1031 
1032 1390 1429 1430 996 1035 1036 1394 1433 
1434 1000 1039 1040 1398 1437 1438 1043 1048 
1442 1445 1044 1047 1052 1446 1449 1051 1056 
1450 1453 1055 1060 1454 1457 1059 1063 1064 
1458 1461 1462 1067 1068 1465 1466 1071 1072 
1469 1470 1075 1076 1473 1474 1441 1079 1080 
1477 1478 1083 1088 1482 1485 1084 1087 1092 
1486 1489 1091 1096 1490 1493 1095 1100 1494 
1497 1099 1103 1104 1498 1501 1502 1107 1108 
1505 1506 1111 1112 1509 1510 1115 1116 1513 
1514 1481 1119 1120 1517 1518 1123 1124 1128 
1522 1525 1127 1132 1526 1529 1131 1136 1530 
1533 1135 1140 1534 1537 1139 1143 1144 1538 
1541 1542 1147 1148 1545 1546 1151 1152 1549 
1550 1155 1156 1553 1554 1521 1159 1160 1557 
1558 1201 1205 1163 1168 1562 1565 1164 807 
1209 1167 1172 1566 1569 811 1171 1176 1570 
1573 1175 1180 1574 1577 1179 1183 1184 1578 
1581 1582 827 1225 1187 1188 1585 1586 1191 
1192 1589 1590 835 1233 1195 1196 1593 1594 
839 1237 1561 1199 1200 1597 1598 1208 1243 
1602 1645 1203 1212 1247 1606 1649 1216 1251 
1610 1653 1613 1220 1255 1614 1657 1215 1224 
1259 1263 1618 1622 1661 1228 1267 1626 1665 
1227 1232 1271 1630 1669 1231 1236 1275 1634 
1673 1641 1204 1240 1279 1638 1677 1239 1244 
1248 1283 1642 1685 1252 1287 1646 1689 1256 
1291 1650 1693 1260 1295 1654 1697 1299 1264 
1303 1658 1662 1701 1268 1307 1666 1705 1272 
1311 1670 1709 1276 1315 1674 1713 1681 1280 
1319 1678 1717 1288 1323 1682 1725 1284 1723 
1292 1327 1686 1729 1296 1331 1690 1733 1300 
1335 1694 1737 1304 1339 1343 1698 1702 1741 
1308 1347 1706 1745 1312 1351 1710 1749 1316 
1355 1714 1753 1721 1320 1359 1718 1757 1328 
1363 1722 1765 1761 1324 1332 1367 1726 1769 
1336 1371 1730 1773 1340 1375 1734 1777 1738 
1344 1379 1383 1742 1781 1348 1387 1746 1785 
1352 1391 1750 1789 1356 1395 1754 1793 1360 
1399 1758 1797 1368 1403 1408 1762 1802 1805 
1364 1372 1407 1412 1766 1806 1809 1376 1411 
1416 1770 1810 1813 1380 1415 1420 1774 1814 
1817 1384 1419 1423 1424 1778 1782 1818 1821 
1822 1388 1427 1428 1786 1825 1826 1392 1431 
1432 1790 1829 1830 1396 1435 1436 1794 1833 
1834 1404 1801 1400 1439 1440 1798 1837 1838 
1443 1448 1842 1845 1444 1841 1447 1452 1846 
1849 1451 1456 1850 1853 1455 1460 1854 1857 
1459 1463 1464 1858 1861 1862 1467 1468 1865 
1866 1471 1472 1869 1870 1475 1476 1873 1874 
1479 1480 1877 1878 1483 1488 1882 1885 1881 
1487 1492 1886 1889 1491 1496 1890 1893 1495 
1500 1894 1897 1499 1503 1504 1898 1901 1902 
1899 1507 1508 1905 1906 1511 1512 1909 1910 
1515 1516 1913 1914 1484 1519 1520 1917 1918 
1523 1528 1922 1925 1921 1527 1532 1926 1929 
1531 1536 1930 1933 1535 1540 1934 1937 1539 
1543 1544 1938 1941 1942 1547 1548 1945 1946 
1551 1552 1949 1950 1951 1555 1556 1953 1954 
1524 1559 1560 1957 1958 1605 1601 1563 1564 
1568 1962 1965 1609 1207 1567 1572 1966 1969 
1211 1571 1576 1970 1973 1617 1575 1580 1974 
1977 1621 1219 1223 1579 1584 1978 1981 1982 
1583 1625 1587 1588 1985 1986 1629 1591 1592 
1989 1990 1235 1633 1595 1596 1993 1994 1637 
1961 1599 1600 1997 1998 1608 1643 2002 2004 
2008 2043 2045 2005 1603 2003 1612 1647 2006 
2012 2047 2049 1616 1651 2010 2016 2051 2053 
1620 1655 2014 2020 2055 2057 1615 2017 2019 
1624 1659 1663 2018 2022 2023 2024 2059 2061 
2063 2021 1623 1619 1628 1667 2025 2026 2028 
2065 2067 1627 1632 1671 2030 2032 2069 2071 
2031 1631 1636 1675 2034 2036 2073 2075 2033 
2035 1640 2001 2041 1604 1679 2038 2039 2040 
2077 2079 1648 1683 2042 2048 2081 2083 2085 
2044 1652 1687 2046 2052 2087 2089 1656 1691 
2050 2056 2091 2093 1660 1695 2054 2060 2095 
2097 1699 2058 1664 1703 2062 2064 2099 2101 
2103 1668 1707 2066 2068 2105 2107 1672 1711 
2070 2072 2109 2111 1676 1715 2074 2076 2113 
2115 1644 1680 1719 2078 2080 2117 2119 1688 
2082 2084 2088 2123 2125 2121 1692 1727 2086 
2092 2127 2129 1696 1731 2090 2096 2131 2133 
1700 1735 2094 2100 2135 2137 1704 1739 1743 
2098 2102 2104 2139 2141 2143 1708 1747 2106 
2108 2145 2147 1712 1751 2110 2112 2149 2151 
1716 1755 2114 2116 2153 2155 1684 1720 1759 
2118 2120 2157 2159 1728 1763 2122 2128 2163 
2165 2161 2124 1724 1732 1767 2126 2167 2169 
1736 1771 2130 2136 2171 2173 1740 1775 2134 
2140 2175 2177 1783 1744 1779 2138 2142 2144 
2181 2183 2179 1748 1787 2146 2148 2185 2187 
1752 1791 2150 2152 2189 2191 1756 1795 2154 
2156 2193 2195 1760 1799 2158 2160 2197 2199 
1768 1803 1808 2162 2168 2202 2203 2205 2208 
2201 1804 1772 1807 1812 2166 2172 2206 2209 
2212 2207 1776 1811 1816 2170 2176 2210 2211 
2213 2216 1780 1815 1820 2174 2180 2214 2215 
2217 2220 1784 1819 1823 1824 2178 2182 2184 
2218 2219 2221 2223 2224 2222 1788 1827 1828 
2186 2188 2225 2226 2227 2228 1792 1831 1832 
2190 2192 2229 2230 2231 2232 1796 1835 1836 
2194 2196 2233 2234 2235 2236 1764 2204 2164 
1800 1839 1840 2198 2200 2237 2238 2239 2240 
1843 1848 2242 2243 2245 2248 2241 1844 1847 
1852 2246 2247 2249 2252 1851 1856 2250 2251 
2253 2256 1855 1860 2254 2255 2257 2260 1859 
1863 1864 2258 2259 2261 2262 2264 2263 1867 
1868 2265 2266 2267 2268 1871 1872 2269 2270 
2271 2272 1875 1876 2273 2274 2275 2276 2244 
1879 1880 2277 2278 2279 2280 1883 1888 2282 
2283 2285 2288 1884 2284 1887 1892 2286 2287 
2289 2292 1891 1896 2290 2293 2291 2296 1895 
1900 2294 2295 2297 2300 1903 1904 2298 2299 
2301 2302 2303 2304 1907 1908 2305 2306 2308 
2307 1911 1912 2309 2310 2312 1915 1916 2313 
2314 2315 2316 2281 1919 1920 2317 2318 2319 
2320 1923 1928 2322 2323 2325 2328 1924 2321 
2324 1932 1927 2326 2327 2329 2332 1931 1936 
2330 2331 2333 2336 1940 1935 2334 2335 2337 
2340 1939 1943 1944 2338 2339 2341 2342 2343 
2344 1947 1948 2345 2346 2347 2348 1952 2349 
2350 2351 2352 1955 1956 2353 2354 2356 2355 
1959 1960 2357 2358 2359 2360 1963 1964 1968 
2362 2363 2365 2368 2361 2364 2009 1607 1967 
1972 2366 2367 2369 2372 2007 1611 2011 2013 
1971 1976 2370 2371 2373 2376 2015 1975 1980 
2374 2375 2377 2380 1979 1983 1984 2378 2379 
2381 2382 2383 2384 2027 1987 1988 2385 2386 
2387 2388 2029 1991 1992 2389 2390 2391 2392 
1635 1995 1996 2393 2394 2395 2396 2037 1639 
1999 2000 2397 2398 2399 2400 2402 2408 2443 
2445 2441 2405 2404 2403 2406 2412 2447 2449 
2410 2416 2451 2453 2413 2414 2420 2455 2457 
2418 2422 2423 2424 2459 2461 2463 2426 2428 
2465 2467 2430 2432 2469 2471 2429 2431 2434 
2436 2473 2475 2433 2438 2440 2477 2479 2401 
2442 2448 2483 2485 2444 2481 2446 2452 2487 
2489 2450 2456 2491 2493 2454 2460 2495 2497 
2458 2462 2464 2499 2501 2503 2466 2468 2505 
2507 2470 2472 2509 2511 2474 2476 2513 2515 
2478 2480 2517 2519 2482 2488 2523 2525 2486 
2492 2527 2529 2490 2496 2531 2533 2494 2500 
2535 2537 2498 2502 2504 2539 2541 2543 2506 
2508 2545 2547 2510 2512 2549 2551 2514 2516 
2553 2555 2521 2484 2518 2520 2557 2559 2522 
2528 2563 2565 2561 2132 2526 2532 2567 2569 
2530 2536 2571 2573 2534 2540 2575 2577 2538 
2542 2544 2579 2581 2583 2546 2548 2585 2587 
2550 2552 2589 2591 2554 2556 2593 2595 2524 
2558 2560 2597 2599 2562 2568 2602 2603 2605 
2608 2601 2566 2572 2606 2607 2609 2570 2576 
2610 2611 2613 2616 2574 2580 2614 2615 2617 
2620 2578 2582 2584 2618 2619 2621 2622 2623 
2624 2586 2588 2625 2626 2627 2628 2590 2592 
2629 2630 2631 2632 2594 2596 2633 2634 2635 
2636 2604 2564 2598 2600 2637 2638 2639 2640 
2642 2643 2645 2648 2641 2612 2646 2647 2649 
2652 2650 2651 2653 2656 2654 2655 2657 2660 
2658 2659 2661 2662 2663 2664 2665 2666 2667 
2668 2669 2670 2671 2672 2673 2674 2675 2676 
2644 2677 2678 2679 2680 2682 2683 2685 2688 
2686 2687 2689 2692 2690 2691 2693 2696 2694 
2695 2697 2700 2698 2699 2701 2702 2703 2704 
2705 2706 2707 2708 2311 2709 2710 2711 2712 
2713 2714 2715 2716 2684 2681 2717 2718 2719 
2720 2722 2723 2725 2728 2724 2721 2726 2727 
2729 2732 2730 2731 2733 2736 2734 2735 2737 
2740 2738 2739 2741 2742 2743 2744 2745 2746 
2747 2748 2749 2750 2751 2752 2753 2754 2755 
2756 2757 2758 2759 2760 2762 2763 2765 2768 
2761 2764 2409 2407 2766 2767 2769 2772 2411 
2770 2771 2773 2776 2415 2417 2774 2775 2777 
2780 2419 2421 2778 2779 2781 2782 2783 2784 
2427 2425 2785 2786 2787 2788 2789 2790 2791 
2792 2435 2793 2794 2795 2796 2439 2437 2797 
2798 2799 2800 2802 2808 2841 2843 2845 2805 
2801 2806 2812 2847 2849 2807 2810 2816 2851 
2853 2813 2814 2820 2855 2857 2818 2822 2823 
2824 2859 2861 2863 2821 2825 2826 2828 2865 
2867 2830 2832 2869 2871 2834 2836 2873 2875 
2835 2804 2838 2840 2877 2879 2837 2842 2848 
2883 2885 2844 2881 2846 2852 2887 2889 2850 
2856 2891 2893 2854 2860 2895 2897 2858 2862 
2864 2899 2901 2903 2866 2868 2905 2907 2870 
2872 2909 2911 2874 2876 2913 2915 2878 2880 
2917 2919 2882 2888 2921 2923 2925 2884 2886 
2892 2927 2929 2890 2896 2931 2933 2894 2900 
2935 2937 2898 2902 2904 2939 2941 2943 2906 
2908 2945 2947 2910 2912 2949 2951 2914 2916 
2953 2955 2918 2920 2957 2959 2922 2928 2963 
2965 2924 2926 2932 2967 2969 2930 2936 2971 
2973 2934 2940 2975 2977 2938 2942 2944 2979 
2981 2983 2946 2948 2985 2987 2950 2952 2989 
2991 2954 2956 2993 2995 2961 2958 2960 2997 
2999 2962 2968 3002 3003 3005 3008 2966 2972 
3006 3007 3009 3012 2970 2976 3010 3011 3013 
3016 2974 2980 3015 3017 3020 3014 2978 2982 
2984 3018 3019 3021 3022 3023 3024 2986 2988 
3025 3027 3028 3026 2990 2992 3029 3030 3031 
3032 2994 2996 3033 3034 3035 3036 2964 3004 
3001 2998 3000 3037 3038 3039 3040 3042 3043 
3045 3048 3046 3047 3049 3052 3050 3051 3053 
3056 3054 3055 3057 3060 3058 3059 3061 3062 
3063 3064 3065 3066 3067 3068 3069 3070 3071 
3072 3073 3074 3075 3076 3041 3044 3077 3078 
3079 3080 3082 3083 3085 3088 3086 3087 3089 
3092 3090 3091 3093 3096 3094 3095 3097 3100 
3098 3099 3101 3102 3103 3104 3105 3106 3107 
3108 3109 3110 3111 3112 3113 3114 3115 3116 
3084 3081 3117 3118 3119 3120 3122 3123 3125 
3128 3124 3126 3127 3129 3132 3130 3131 3133 
3136 3134 3135 3137 3140 3138 3139 3141 3142 
3143 3144 3145 3146 3147 3148 3149 3150 3151 
3152 3153 3154 3155 3156 3121 3157 3158 3159 
3160 2803 3162 3163 3165 3168 3164 2809 3166 
3167 3169 3172 2811 3170 3171 3173 3176 2817 
2815 3174 3175 3177 3180 2819 3178 3179 3181 
3182 3183 3184 2827 3185 3186 3187 3188 2831 
2829 3189 3190 3191 3192 2833 3193 3194 3195 
3196 2839 3161 3197 3198 3199 3200 3202 3205 
3208 3243 3245 3241 3203 3206 3212 3247 3249 
3210 3216 3251 3253 3214 3220 3255 3257 3217 
3218 3222 3223 3224 3259 3261 3263 3219 3221 
3226 3227 3228 3265 3267 3230 3232 3269 3271 
3231 3234 3236 3273 3275 3233 3235 3204 3237 
3238 3240 3277 3279 3201 3242 3248 3283 3285 
3281 3246 3252 3287 3289 3250 3256 3291 3293 
3254 3260 3295 3297 3299 3258 3262 3264 3301 
3303 3266 3268 3305 3307 3270 3272 3309 3311 
3274 3276 3313 3315 3244 3278 3280 3317 3319 
3282 3288 3323 3325 3284 3321 3286 3292 3327 
3329 3290 3296 3331 3333 3294 3300 3335 3337 
3298 3302 3304 3339 3341 3343 3306 3308 3345 
3347 3310 3312 3349 3351 3314 3316 3353 3355 
3318 3320 3357 3359 3322 3328 3363 3365 3361 
3326 3332 3367 3369 3330 3336 3371 3373 3334 
3340 3375 3377 3338 3342 3344 3379 3381 3383 
3346 3348 3385 3387 3350 3352 3389 3391 3354 
3356 3393 3395 3324 3358 3360 3397 3399 3362 
3368 3402 3403 3405 3408 3364 3366 3372 3406 
3407 3409 3412 3370 3376 3410 3411 3413 3416 
3374 3380 3414 3415 3417 3420 3378 3382 3384 
3418 3419 3421 3422 3423 3424 3386 3388 3425 
3426 3427 3428 3390 3392 3429 3430 3431 3432 
3394 3396 3433 3434 3435 3436 3401 3404 3398 
3400 3437 3438 3439 3440 3442 3443 3445 3448 
3446 3447 3449 3452 3450 3451 3453 3456 3454 
3455 3457 3460 3458 3459 3461 3462 3463 3464 
3465 3466 3467 3468 3469 3470 3471 3472 3473 
3474 3475 3476 3441 3444 3477 3478 3479 3480 
3482 3483 3485 3488 3486 3487 3489 3492 3490 
3491 3493 3496 3494 3495 3497 3500 3498 3499 
3501 3502 3503 3504 3505 3506 3507 3508 3509 
3510 3511 3512 3513 3514 3515 3516 3481 3484 
3517 3518 3519 3520 3522 3523 3525 3528 3521 
3524 3526 3527 3529 3532 3530 3531 3533 3536 
3534 3535 3537 3540 3538 3539 3541 3542 3543 
3544 3545 3546 3547 3548 3549 3550 3551 3552 
3553 3554 3555 3556 3557 3558 3559 3560 3562 
3563 3565 3568 3561 3209 3207 3566 3567 3569 
3572 3211 3213 3570 3571 3573 3576 3215 3574 
3575 3577 3580 3578 3579 3581 3582 3583 3584 
3225 3585 3586 3587 3588 3229 3589 3590 3591 
3592 3593 3594 3595 3596 3564 3239 3597 3598 
3599 3600 2 3602 3608 3643 3645 3604 3605 
49 3606 3612 3647 3649 10 53 3610 3616 
3651 3653 13 3613 3611 14 3614 3615 3620 
3655 3657 22 61 18 3618 3622 3624 3659 
3661 3663 65 26 3625 3626 3628 3665 3667 
30 3630 3632 3669 3671 3631 34 3634 3636 
3673 3675 3635 38 1 3601 3641 3638 3640 
3677 3679 3642 3648 3683 3685 3644 46 89 
3646 3652 3687 3689 93 50 3650 3656 3691 
3693 3654 3660 3695 3697 101 3658 3662 3664 
3699 3701 3703 66 105 3666 3668 3705 3707 
109 70 3670 3672 3709 3711 3674 3676 3713 
3715 78 3681 3678 3680 3717 3719 3682 3688 
3723 3725 3684 3686 3692 3727 3729 90 3690 
3696 3731 3733 94 3694 3700 3735 3737 102 
98 3698 3702 3704 3739 3741 3743 3706 3708 
3745 3747 149 3710 3712 3749 3751 114 153 
3714 3716 3753 3755 157 3721 3718 3720 3757 
3759 122 3722 3728 3763 3765 3726 3732 3767 
3769 3730 3736 3771 3773 134 3734 3740 3775 
3777 138 142 181 3738 3742 3744 3779 3781 
3783 185 146 3746 3748 3785 3787 150 3750 
3752 3789 3791 193 3754 3756 3793 3795 3794 
197 158 3761 3724 3758 3760 3797 3799 3762 
3768 3802 3803 3805 3808 166 206 209 3772 
3766 3806 3807 3809 3812 170 3770 3776 3810 
3811 3813 3816 174 217 214 3774 3780 3815 
3817 3820 3814 218 221 178 3778 3782 3784 
3818 3819 3821 3822 3823 3824 186 226 3786 
3788 3825 3826 3827 3828 190 3790 3792 3829 
3830 3831 3832 194 233 3796 3833 3834 3835 
3836 237 3804 3764 3801 3798 3800 3837 3838 
3839 3840 242 3842 3843 3845 3848 246 249 
3846 3847 3849 3852 3850 3851 3853 3856 254 
257 3854 3855 3857 3860 258 3859 3858 3861 
3862 3863 3864 266 265 3865 3866 3867 3868 
270 269 3869 3870 3871 3872 3873 3874 3875 
3876 241 3844 3841 3877 3878 3879 3880 285 
282 3882 3883 3885 3888 3884 289 286 3886 
3887 3889 3892 290 293 3890 3891 3893 3896 
294 297 3894 3895 3897 3900 301 3898 3899 
3901 3902 3903 3904 306 305 3905 3906 3907 
3908 310 309 3909 3910 3911 3912 314 3913 
3914 3915 3916 281 3881 317 3917 3918 3919 
3920 322 3922 3923 3925 3928 329 326 3926 
3927 3929 3932 330 333 3930 3931 3933 3936 
337 3934 3935 3937 3940 338 341 3938 3939 
3941 3942 3943 3944 345 346 3945 3946 3947 
3948 350 349 3949 3950 3951 3952 354 353 
3953 3954 3955 3956 321 3924 3921 3957 3958 
3959 3960 362 3603 3962 3963 3965 3968 369 
9 3609 366 3607 3966 3967 3969 3972 373 
3970 3971 3973 3976 374 3617 3974 3975 3977 
3980 3619 21 3623 3621 3978 3979 3981 3982 
3983 3984 3627 25 3985 3986 3987 3988 29 
3629 390 3989 3990 3991 3992 3633 33 3993 
3994 3995 3996 397 398 3639 3961 3964 3637 
3997 3998 3999 4000 
type 1 4000 int
1 1 1 1 1 1 1 1 1 
1 1 1 1 1 1 1 1 1 
1 1 1 1 1 1 1 1 1 
1 1 1 1 1 1 1 1 1 
1 1 1 1 1 1 1 1 1 
1 1 1 1 1 1 1 1 1 
1 1 1 1 1 1 1 1 1 
1 1 1 1 1 1 1 1 1 
1 1 1 1 1 1 1 1 1 
1 1 1 1 1 1 1 1 1 
1 1 1 1 1 1 1 1 1 
1 1 1 1 1 1 1 1 1 
1 1 1 1 1 1 1 1 1 
1 1 1 1 1 1 1 1 1 
1 1 1 1 1 1 1 1 1 
1 1 1 1 1 1 1 1 1 
1 1 1 1 1 1 1 1 1 
1 1 1 1 1 1 1 1 1 
1 1 1 1 1 1 1 1 1 
1 1 1 1 1 1 1 1 1 
1 1 1 1 1 1 1 1 1 
1 1 1 1 1 1 1 1 1 
1 1 1 1 1 1 1 1 1 
1 1 1 1 1 1 1 1 1 
1 1 1 1 1 1 1 1 1 
1 1 1 1 1 1 1 1 1 
1 1 1 1 1 1 1 1 1 
1 1 1 1 1 1 1 1 1 
1 1 1 1 1 1 1 1 1 
1 1 1 1 1 1 1 1 1 
1 1 1 1 1 1 1 1 1 