# vtk DataFile Version 4.0
Generated by LAMMPS
ASCII
DATASET POLYDATA
POINTS 4000 float
6.67839 -0.928098 1.48329 4.45467 -2.4408 1.59079 4.85573 -0.638374 -0.432821 
6.56146 -3.11926 -0.504971 10.5109 -1.7157 1.6148 8.38687 -3.30262 1.60485 
10.8657 0.331344 -0.627514 8.95436 0.746094 1.56358 8.61538 -1.18317 -0.465843 
12.5379 -0.158433 1.49848 14.445 -2.44135 1.47596 14.4726 -0.549798 -0.69062 
16.5963 -0.85079 1.55767 18.4223 -3.12067 1.47195 20.5089 -1.46926 1.36539 
24.3255 -2.37833 1.50268 22.6415 0.162976 1.46897 20.6185 0.501765 3.58756 
28.0504 -3.01342 1.3835 26.4036 -0.590818 1.56099 25.988 -2.62929 3.73262 
29.9949 -1.2693 1.6037 31.9981 -1.57348 3.49322 32.1302 0.389896 1.58296 
32.129 -1.47793 -0.468714 31.8256 -3.5773 1.57157 35.9216 -0.102648 1.40424 
34.0442 -1.75074 1.68071 34.1389 0.154562 3.56478 5.1727 1.46968 1.53991 
7.38939 3.14416 1.50239 7.00142 1.06028 -0.401757 7.63265 5.06327 3.77356 
9.46247 4.74792 1.61357 11.1025 2.42809 1.5665 9.17924 2.70039 3.46863 
9.36312 2.73613 -0.411807 14.8874 1.55064 1.67046 13.2424 3.94514 1.55526 
18.5283 1.08027 1.51666 17.0455 3.30066 1.53574 18.9802 3.06185 3.57211 
18.8926 3.13842 -0.58465 16.5966 1.39602 -0.523583 17.2153 5.38289 -0.444958 
20.7474 2.26021 1.44378 22.8997 4.40622 1.46893 22.7349 2.3808 3.45895 
21.0577 4.74465 3.68204 24.6865 1.81385 1.4216 26.7786 3.56604 1.59751 
28.4736 1.14919 1.66798 24.927 3.96522 3.43605 24.8628 4.15537 -0.548291 
30.1674 0.72885 3.68435 30.6167 2.64741 1.4963 28.8171 3.167 3.70415 
32.459 2.44308 3.56995 32.7087 4.39253 1.53887 32.498 2.64807 -0.69848 
28.7582 3.17093 -0.607934 30.8579 5.07697 -0.526756 30.4072 0.798886 -0.478308 
36.5314 3.88373 1.60952 34.3304 2.15043 1.46381 36.2712 1.86229 3.36723 
5.68175 5.45916 1.50025 4.03643 7.92118 1.57485 7.96914 7.05864 1.55205 
3.73801 5.66049 -0.523023 6.24008 9.47724 1.54329 7.45244 5.07258 -0.5313 
5.76744 7.48235 -0.436426 11.7314 6.35841 1.52775 9.99957 8.76448 1.4713 
9.8795 6.54827 -0.571139 11.9895 8.31507 -0.50929 7.91703 9.05431 -0.657264 
15.4125 5.70496 1.54296 13.7141 7.96975 1.62559 15.6305 7.62682 -0.49389 
13.5645 6.03055 -0.542326 19.2979 4.91506 1.56715 17.568 7.25651 1.66131 
19.7526 9.21337 1.66242 17.2642 5.49875 3.58804 19.4006 7.24589 3.67913 
19.5353 7.0791 -0.493738 21.3131 6.9167 1.68527 23.4907 8.36995 1.52113 
21.3452 8.77052 -0.420984 23.2003 6.42196 -0.425553 25.2334 5.98445 1.46956 
27.006 5.57774 3.55937 27.3249 7.72389 1.46003 31.058 6.86604 1.39177 
29.0439 5.12406 1.51948 29.1991 7.32448 3.4367 29.3802 9.46583 1.3648 
34.8993 6.32741 1.4278 33.2121 8.68358 1.34785 35.1922 8.24189 3.65103 
35.2804 8.39953 -0.603463 32.944 6.54216 -0.577333 4.48951 11.9104 1.56291 
4.15931 9.86121 3.64636 4.19772 10.1662 -0.383908 6.55283 13.6328 1.45639 
4.65416 14.0419 -0.636382 8.44692 11.0939 1.56189 10.4019 13.0159 1.5313 
10.2895 10.8272 -0.452782 8.52796 13.1692 -0.67799 12.2663 10.442 1.50748 
14.1907 12.0514 1.4859 15.8741 9.75416 1.55636 12.3088 12.5733 -0.504833 
14.0882 10.0838 -0.619082 17.9604 11.5502 1.46556 20.1039 11.182 3.65994 
18.4662 13.4142 3.52847 20.3182 13.1036 1.57647 17.7292 9.3645 -0.521399 
19.8189 11.1483 -0.592185 21.9906 10.7419 1.51905 23.9462 12.5172 1.44062 
25.6523 10.0527 1.38641 27.7735 11.7939 1.29598 28.0043 13.7967 -0.595652 
31.6073 11.0657 1.32811 30.0012 13.3435 1.61974 29.6932 11.5167 3.57914 
35.3599 10.3705 1.68091 33.7388 12.6358 1.44195 33.4652 10.8383 3.61317 
35.7123 12.4603 -0.483116 4.94631 16.0563 1.4672 7.07084 17.6287 1.44558 
5.33865 18.2018 3.85054 6.93546 15.7194 -0.613683 8.74061 15.1311 1.58672 
10.8385 16.8421 1.60252 8.89637 17.4085 -0.738146 10.5116 15.0071 -0.561195 
12.6629 14.5743 1.53886 14.695 16.2307 1.49121 12.6716 16.6406 -0.42367 
16.3777 13.8592 1.65775 18.3767 15.6988 1.77325 16.9751 17.8956 1.37097 
16.5418 15.9504 -0.554022 22.4977 14.8935 1.55102 20.7259 17.3418 1.50168 
20.5386 15.3068 3.73666 24.0641 14.5847 -0.555171 24.5297 16.5037 1.52755 
26.2148 14.4466 1.42464 26.4241 16.2758 3.49319 28.4711 15.812 1.42474 
26.2515 16.2492 -0.619194 26.6505 18.2948 1.44586 31.9347 15.3191 1.63297 
30.5368 17.6407 1.39999 32.5044 17.0064 -0.592066 30.2112 15.5347 -0.581835 
28.5301 17.7661 -0.608356 36.0202 14.1179 1.57431 34.2559 16.6562 1.63544 
36.2895 16.2935 3.61898 36.2372 16.433 -0.611888 5.69964 20.0161 1.57599 
5.95352 22.1651 3.47848 7.69541 21.9393 1.56489 3.73596 22.4311 1.48341 
5.17013 18.2144 -0.620262 9.17626 19.4224 1.39779 11.4437 21.0757 1.48007 
11.0547 19.0718 -0.600039 12.9266 18.8 1.657 15.2063 20.376 1.49869 
15.0762 18.1616 3.4894 18.6773 19.831 1.44478 19.1499 21.8217 3.60211 
17.2492 22.3065 1.38242 17.0041 20.1029 3.6479 22.9904 19.1536 1.50391 
20.8716 19.3208 3.43914 21.0239 21.367 1.57044 22.9613 21.0101 3.64264 
24.9446 20.8064 1.4135 27.1538 22.3947 1.39545 24.585 18.5275 3.63974 
26.8081 20.3721 3.5635 24.677 18.7412 -0.536069 28.7346 20.0767 1.53918 
30.7688 19.6447 -0.627114 30.9501 21.7278 1.45401 32.7553 19.0406 1.48786 
29.0825 22.0132 -0.595703 36.4633 18.3879 1.51314 34.8156 20.6737 1.5114 
36.6775 20.3272 3.43077 33.0143 21.1452 -0.476268 36.6501 20.4669 -0.66012 
34.5913 18.7523 -0.604764 5.86798 24.3156 1.67626 4.06279 24.4415 3.47338 
4.39125 26.6066 1.58444 6.29874 26.258 -0.448311 8.17521 25.9762 1.58693 
9.79712 23.6437 1.74791 11.8474 25.2789 1.62294 10.1165 25.5612 -0.49119 
11.5981 23.1712 -0.54508 13.5547 22.6829 1.59474 15.5676 24.7031 1.35804 
13.9132 24.7943 3.49941 15.9925 26.7037 3.60934 17.8049 26.2045 1.39765 
19.5093 23.9528 1.44373 19.955 25.8729 -0.488484 17.5874 24.169 -0.700595 
23.2365 23.0562 1.51313 21.7526 25.6042 1.61952 21.244 23.5731 3.64613 
23.5331 25.1471 -0.755206 25.151 22.8734 3.33795 25.5731 24.8344 1.51863 
27.7049 26.4443 1.42615 27.6032 24.3807 3.56297 27.4369 24.4802 -0.760008 
25.2534 22.8063 -0.550815 25.7044 26.9964 -0.657056 29.3802 23.9901 1.44661 
31.4579 25.6987 1.46785 31.3616 23.4959 3.59366 29.6032 26.0563 3.39871 
33.2509 23.2008 1.41762 35.314 24.9151 1.50151 33.426 25.221 -0.742915 
6.4396 28.3865 1.44833 4.86891 30.6964 1.57299 4.71827 28.5797 3.62877 
6.75692 30.4187 -0.447064 8.40241 28.0951 3.68944 10.5061 27.7252 1.65542 
8.52839 29.9975 1.64216 10.5436 29.8341 3.44785 8.42209 28.034 -0.581858 
10.4603 29.8462 -0.371711 12.0837 27.329 -0.514868 13.8566 27.0822 1.69412 
12.3281 27.5084 3.75184 12.4937 29.4518 1.52768 14.413 29.2408 3.59215 
14.5661 31.1877 1.51176 12.731 31.6625 3.52533 16.3735 28.6052 1.33984 
18.4305 30.3866 1.60488 20.1507 27.9387 1.70816 18.0932 28.2803 3.56912 
18.2028 28.1387 -0.571151 20.2812 29.9198 -0.494874 23.9876 27.1579 1.57871 
22.2576 29.5324 1.41583 24.1808 29.3248 -0.735006 21.9589 27.5561 -0.603712 
26.0808 28.9778 1.43569 28.0338 28.5154 -0.694036 28.1703 30.4547 1.43218 
28.0435 28.4073 3.427 26.3902 30.9934 3.42163 26.381 30.8181 -0.771049 
29.853 28.2073 1.17106 31.9606 29.7167 1.29898 30.1103 30.234 -0.645268 
31.8222 27.5386 -0.695468 33.7382 27.3861 1.40101 35.7461 29.0173 1.77955 
7.0053 32.5634 1.40512 5.29416 35.0035 1.32974 5.26004 32.8629 3.36894 
7.23213 34.7434 -0.600193 10.718 31.8887 1.57251 9.19587 34.3831 1.54696 
10.9325 34.0834 3.69775 10.8437 33.924 -0.449276 8.80872 32.1087 -0.433422 
12.8108 33.6151 1.51552 15.0599 35.0805 1.36664 12.6181 31.4543 -0.443692 
13.2033 35.5215 -0.549584 16.6431 32.8433 1.56043 18.8573 34.1158 1.6257 
18.6368 32.1348 3.57243 18.6515 32.0622 -0.513134 20.7744 31.8387 1.44922 
22.7802 33.6248 1.24436 20.7051 33.933 3.48526 24.4143 31.251 1.44591 
26.5617 32.8314 1.30136 24.5352 33.2738 -0.671395 25.0185 35.3234 1.38294 
24.7898 33.3663 3.32261 28.39 32.6648 -0.61837 26.7789 34.8304 -0.849753 
28.8813 34.6548 1.29304 30.5158 32.1723 1.31211 32.4448 31.7815 -0.625092 
32.526 33.8874 1.40963 32.1782 32.0611 3.52337 30.61 34.2554 -0.861734 
34.0456 31.4659 1.5414 36.4053 33.0941 1.48928 34.6901 35.4656 1.47657 
36.7198 35.0688 -0.68619 7.39878 36.7455 1.42577 5.89232 39.0442 1.55692 
3.85294 39.463 3.52023 7.67178 38.7978 3.73466 7.65593 38.7464 -0.658176 
5.43876 37.2223 -0.562974 3.8943 39.4176 -0.641603 11.383 36.0315 1.67287 
9.57437 38.4602 1.49837 9.28912 36.4745 3.56758 11.725 37.9769 -0.591201 
11.816 39.9433 1.58628 13.4474 37.5555 1.62077 15.6103 39.1159 1.55467 
15.4794 37.0984 -0.516067 17.3575 36.532 1.52454 19.4252 38.4732 1.58725 
19.1357 36.3966 -0.605551 21.0396 36.1574 1.39002 23.2692 37.6186 1.49578 
21.3024 38.2033 -0.618973 27.1054 36.9673 1.50785 25.2905 39.4191 1.47318 
25.1302 37.4926 3.61862 30.7233 36.4449 1.52167 29.1444 38.636 1.64255 
28.8188 36.5139 -0.540017 28.9771 36.7084 3.57931 31.0541 38.3529 3.59234 
30.9519 38.549 -0.701461 36.7964 37.3032 1.50515 33.2102 38.1334 1.61147 
34.8703 37.5674 3.69076 35.3388 39.6078 1.52376 34.9225 37.5913 -0.641626 
6.34003 43.1704 1.58686 4.04382 41.591 1.57102 5.88649 41.1152 -0.546883 
4.30057 43.5659 -0.424421 8.01599 40.8196 1.55458 9.939 40.4712 3.51098 
10.1723 42.3889 1.54349 8.28188 42.7558 3.47378 10.1814 44.3328 -0.373393 
8.05248 42.7071 -0.493657 9.8212 40.3057 -0.68318 13.9435 41.562 1.7036 
12.2203 44.1499 1.31868 15.9689 40.9892 3.57829 14.173 43.7434 -0.767524 
15.8172 41.4366 -0.507288 16.1458 43.1579 1.31785 17.844 40.9139 1.5765 
20.0428 42.6574 1.51357 18.0683 42.9037 -0.570508 22.1577 44.219 1.57292 
21.5707 40.0253 1.63616 23.8225 41.8464 1.49435 23.9233 43.7984 3.46642 
26.0486 43.509 1.52823 27.4962 41.1406 1.44643 27.9854 43.0622 3.40865 
25.6148 41.4567 3.61248 29.7276 42.8629 1.40253 31.3506 40.4887 1.57734 
29.4901 40.8921 3.51613 33.2442 39.9545 -0.535974 33.7979 44.2676 3.58399 
35.4726 43.8709 1.58192 33.5134 42.1756 1.33756 4.83133 -0.445659 3.56312 
6.46223 -2.91158 3.50424 6.86251 -0.85746 5.70304 4.72056 -2.64607 5.5777 
8.61077 -1.29756 3.6833 10.6424 0.290037 3.66816 10.6182 -1.7855 5.62898 
8.65319 -3.46379 5.58735 9.01584 0.709489 5.60022 12.4916 -2.07666 3.62149 
14.8578 -0.528073 3.66408 12.6989 0.0928323 5.68043 14.3948 -2.57813 5.87525 
[...]
POINT_DATA 4000
FIELD FieldData 6
id 1 4000 int
7 3 2 5 11 372 10 12 9 
16 15 14 20 19 24 28 63 461 
32 67 426 36 434 75 34 35 4 
40 438 8 47 6 446 52 51 449 
49 55 56 59 60 458 58 57 97 
64 103 462 501 68 72 71 505 66 
473 76 470 477 80 74 70 113 73 
43 79 402 48 83 87 42 88 46 
85 91 92 89 90 86 95 96 94 
93 99 100 139 497 498 98 104 108 
102 105 107 509 112 115 111 513 116 
44 119 481 81 117 123 482 82 128 
122 127 132 129 126 131 136 135 130 
133 140 538 577 144 137 141 143 148 
147 151 150 120 155 514 84 159 518 
121 163 168 562 165 167 172 166 169 
171 176 170 175 179 180 177 183 184 
581 185 187 152 550 156 189 191 160 
195 197 154 193 124 199 561 161 203 
602 208 204 162 207 212 209 211 215 
613 219 621 220 617 188 582 223 586 
192 231 589 590 186 196 194 235 200 
233 164 239 601 237 201 198 243 641 
244 242 248 247 251 249 210 216 255 
653 657 259 224 261 257 227 228 625 
226 629 232 271 630 230 229 269 236 
275 634 673 240 279 277 283 284 681 
285 685 252 287 689 246 289 250 256 
650 291 654 295 693 260 264 263 661 
258 262 267 268 266 265 272 270 311 
670 709 309 276 315 313 274 280 319 
288 323 721 325 292 327 690 329 286 
296 300 290 333 299 304 701 301 303 
308 702 307 312 306 347 706 310 349 
351 316 314 355 714 353 320 359 360 
321 328 363 761 726 365 322 361 331 
332 729 330 336 335 340 337 339 344 
341 343 348 342 352 387 746 356 391 
350 750 793 393 324 395 797 399 358 
368 364 362 1 367 730 371 769 370 
366 369 375 376 777 374 377 380 379 
384 378 23 383 388 425 27 392 429 
786 31 396 790 397 437 39 400 405 
766 407 768 409 410 411 772 412 413 
414 416 415 418 421 417 420 419 422 
424 463 822 428 465 469 432 467 869 
826 430 471 830 475 436 401 403 440 
801 838 406 445 408 447 450 451 452 
850 453 454 455 456 853 854 457 459 
460 857 858 499 464 503 901 466 468 
507 472 474 476 874 441 479 443 404 
485 442 448 487 483 488 486 489 490 
492 491 890 889 493 494 495 496 894 
897 500 898 539 502 541 941 504 543 
506 508 512 517 511 480 515 478 444 
519 881 525 882 523 528 526 529 527 
532 926 531 533 530 535 536 934 537 
534 937 540 579 938 575 545 542 544 
548 549 510 553 516 547 557 520 555 
521 484 559 522 565 922 563 568 569 
566 567 572 573 570 571 576 973 578 
574 580 615 585 546 583 584 978 593 
552 551 950 556 554 597 993 560 595 
954 997 558 524 599 961 605 603 1002 
608 604 609 606 607 612 610 614 611 
616 1013 619 620 1014 1021 588 587 591 
592 631 1029 594 633 596 635 1033 600 
637 598 1001 564 639 1037 642 645 643 
1042 644 1045 649 646 647 648 1049 652 
1046 651 655 656 618 622 623 624 626 
627 628 1025 669 632 1030 671 636 675 
638 677 678 640 679 1038 1077 682 683 
684 687 688 1085 1086 1089 691 660 1054 
658 662 659 664 663 1062 666 665 667 
668 1066 707 672 1070 711 674 713 676 
715 717 718 680 719 725 723 724 1122 
686 692 727 1125 1090 694 697 695 700 
1097 1094 698 699 704 1098 705 745 703 
708 749 712 1106 747 1149 1110 710 753 
751 716 755 757 758 720 759 1157 1158 
760 722 728 763 1161 733 696 731 1133 
1129 736 734 737 735 740 1134 738 741 
739 744 742 785 743 748 783 789 752 
787 1189 754 756 791 1193 799 1154 795 
800 762 765 767 764 1165 770 773 732 
771 774 776 775 780 778 781 779 784 
782 423 788 825 427 792 829 1186 433 
431 796 1190 833 794 798 439 435 805 
1166 803 807 810 809 811 1209 1172 812 
814 813 816 815 817 821 818 820 819 
1217 1221 865 861 824 828 863 1222 832 
867 1226 873 871 1234 875 836 840 804 
1277 806 845 846 1206 808 847 849 851 
852 1249 1250 855 856 1253 859 860 899 
862 864 903 905 866 909 868 907 872 
870 877 876 1273 1274 880 841 802 843 
879 885 848 883 886 887 891 892 893 
1293 895 896 1294 1297 900 939 1337 902 
904 943 906 945 908 912 1306 917 913 
911 915 916 842 878 844 919 925 888 
923 928 929 927 932 933 930 931 935 
1330 936 977 1334 940 979 1338 942 981 
944 948 910 949 947 951 957 914 920 
955 1357 918 921 884 959 965 962 963 
968 1362 969 966 967 972 970 971 976 
1373 974 1017 975 980 1374 1015 946 985 
1381 983 984 1382 1385 987 953 952 956 
1389 1393 960 1354 995 958 924 1361 999 
1358 1005 1003 1405 1008 1006 1009 1007 1012 
1406 1409 1010 1011 1016 1410 1019 1020 1417 
1418 986 982 988 1023 1421 1425 989 990 
991 992 1031 1386 994 996 1035 1000 998 
1437 1401 964 1039 1398 1041 1043 1044 1441 
1442 1445 1004 1047 1048 1052 1053 1050 1057 
1055 1051 1454 1022 1018 1024 1059 1026 1027 
1028 1426 1069 1429 1032 1071 1430 1469 1034 
1073 1036 1075 1473 1434 1040 1079 1477 1478 
1081 1082 1083 1084 1087 1088 1485 1056 1091 
1095 1061 1058 1060 1064 1063 1458 1065 1067 
1068 1466 1109 1072 1111 1107 1113 1074 1076 
1115 1513 1078 1117 1118 1080 1119 1518 1121 
1123 1124 1521 1525 1092 1127 1093 1096 1100 
1494 1490 1101 1099 1104 1102 1105 1145 1103 
1108 1502 1545 1506 1112 1147 1153 1114 1151 
1116 1553 1155 1514 1120 1159 1160 1557 1126 
1198 1128 1163 1565 1131 1132 1136 1530 1526 
1137 1135 1140 1141 1138 1139 1144 1142 1185 
1143 1148 1542 1146 1152 1187 1546 1150 1156 
1191 1593 1197 1199 1554 1195 1200 1597 1162 
1168 1164 1201 1562 1167 1170 1130 1169 1171 
1173 1174 1177 1176 1175 1180 1178 1181 1179 
1184 1182 1183 823 1188 1225 827 1192 1586 
1229 831 1196 1590 834 1194 837 839 835 
1594 1598 1202 1205 1208 1204 1602 1210 1610 
1207 1211 1609 1212 1213 1214 1216 1215 1614 
1613 1218 1220 1219 1617 1224 1261 1265 1228 
1263 1269 1267 1232 1630 1626 1230 1236 1235 
1275 1238 1240 1279 1638 1245 1246 1247 1243 
1251 1252 1650 1254 1653 1255 1256 1654 1257 
1258 1259 1260 1658 1299 1262 1301 1264 1303 
1266 1305 1271 1268 1272 1669 1666 1270 1276 
1673 1674 1315 1241 1278 1244 1280 1285 1242 
1248 1283 1287 1286 1289 1290 1291 1292 1295 
1296 1693 1298 1697 1300 1339 1302 1341 1304 
1308 1309 1307 1312 1313 1310 1314 1311 1316 
1753 1281 1317 1319 1320 1325 1282 1288 1323 
1725 1328 1326 1329 1327 1332 1333 1331 1336 
1335 1377 1734 1737 1340 1344 1741 1345 1342 
1343 1348 1745 1742 1349 1346 1347 1352 1353 
1351 1355 1356 1750 1754 1318 1321 1284 1359 
1322 1365 1363 1368 1722 1762 1369 1366 1367 
1372 1370 1371 1376 1770 1375 1378 1379 1778 
1380 1781 1384 1383 1785 1782 1388 1350 1387 
1391 1392 1397 1360 1395 1793 1324 1399 1761 
1402 1403 1805 1802 1408 1407 1412 1413 1411 
1415 1813 1814 1419 1420 1818 1423 1424 1821 
1822 1390 1427 1431 1825 1829 1394 1433 1396 
1794 1435 1833 1400 1364 1801 1798 1439 1837 
1443 1444 1842 1841 1845 1404 1449 1446 1451 
1447 1448 1414 1453 1416 1455 1853 1457 1461 
1459 1460 1422 1428 1463 1861 1865 1432 1471 
1436 1475 1873 1438 1440 1479 1481 1482 1483 
1484 1881 1489 1450 1452 1487 1493 1456 1491 
1850 1893 1496 1497 1462 1495 1464 1499 1894 
1897 1465 1467 1468 1470 1509 1869 1472 1870 
1511 1909 1474 1476 1515 1517 1480 1519 1878 
1918 1917 1488 1523 1882 1486 1529 1492 1527 
1929 1533 1890 1531 1535 1933 1498 1501 1500 
1504 1898 1505 1503 1508 1902 1549 1507 1512 
1547 1949 1510 1516 1555 1914 1551 1953 1558 
1520 1559 1522 1561 1528 1563 1922 1961 1532 
1567 1571 1926 1534 1537 1536 1540 1538 1541 
1539 1544 1585 1945 1543 1548 1942 1589 1552 
1587 1550 1950 1556 1591 1560 1524 1595 1599 
1203 1564 1962 1601 1568 1570 1566 1569 1572 
1605 1966 1970 1573 1574 1577 1575 1576 1977 
1580 1581 1578 1579 1584 1981 1582 1985 1583 
1223 1588 1625 1982 1227 1592 1233 1231 1596 
1237 1239 1600 1637 1641 1604 1643 2041 2002 
1606 1608 1612 2045 1616 1615 1618 1621 1620 
1619 1624 1661 1622 1665 1628 1663 2026 1632 
1631 2030 1634 1633 1636 1635 2034 1675 1677 
1640 1679 2077 2037 1642 1645 2042 1648 1644 
2081 1649 1647 1651 1652 2050 2046 1655 1656 
2053 1657 1660 1659 2057 1701 1662 2061 1664 
1668 2065 2062 1667 1671 1672 2066 2070 1670 
1676 2073 2074 1717 1678 1715 1680 1719 2078 
2117 1646 1685 1683 1684 1687 1689 1686 1690 
2089 1692 1691 1694 1695 1696 1698 1699 1700 
1704 1705 1702 1703 1708 2105 2102 1709 1706 
1707 1712 1713 1710 2113 1711 1716 2153 1681 
1714 1718 1720 1755 2114 2157 1682 1688 1723 
2125 1728 1729 1726 1727 1732 2129 2126 1730 
1733 1731 2133 1736 2130 1735 1738 1739 2098 
1744 2141 1743 1748 2142 1749 1746 1747 1752 
2149 1751 1756 1791 2150 2193 1721 1757 1759 
1760 2158 1765 2165 1763 1768 1769 1766 1767 
2169 1772 2166 1773 1771 1775 1777 1740 1779 
2177 1780 2181 1783 1784 2185 2182 1788 1789 
1786 1787 1792 1797 1790 1795 1796 2194 1758 
1724 1799 2161 2197 2162 2205 1803 1808 1804 
1806 1809 1807 1811 2170 2209 1774 1776 1815 
2213 2174 1817 1819 1820 2217 1823 1824 2221 
2222 1827 1828 1832 2225 2226 1831 1835 2230 
1800 2201 1764 2198 2237 1839 1843 1844 2241 
1810 1849 1847 1812 1851 2210 1816 1855 1857 
1858 1859 1860 2257 2258 1863 1864 2261 2262 
1826 1830 1867 1871 2265 2269 2266 1834 1836 
2234 1875 1838 1877 1840 2238 2277 1879 1885 
1848 1883 2285 2242 1846 1889 1852 1887 2246 
2289 1854 1856 1891 1896 1899 1895 1900 2294 
1901 1866 1862 1868 1903 2298 1872 2270 2309 
1911 1874 1913 1876 2274 1915 2313 1880 1919 
2317 2281 1925 1888 1923 2282 1886 1892 1927 
2329 2286 1930 1931 1936 1937 1935 1939 1905 
1907 1904 1908 2341 1906 1947 1912 2306 2349 
1910 2310 1951 1916 1955 2314 2353 1957 1921 
1884 1920 2321 2318 1965 1928 1963 2365 2322 
1924 1969 1932 1967 1934 1973 1975 1971 2373 
2370 1941 1938 1944 1940 2377 1943 2345 1948 
2385 1946 1989 1952 1987 1993 1991 1956 1954 
1958 1959 1960 1999 1603 1964 2362 2001 1972 
1968 2005 1607 1974 1611 1976 1980 2374 1978 
1979 1984 2378 1623 1983 1988 1629 1986 1627 
1992 1994 1990 1995 1996 1997 1998 1639 2000 
2043 2004 2441 2008 2047 2049 2006 2445 2014 
2010 2016 2051 2449 2017 2018 2021 2020 2019 
2024 2414 2421 2022 2028 2027 2425 2029 2032 
2031 2033 2035 2036 2075 2434 2038 2040 2079 
2477 2438 2044 2083 2481 2442 2048 2052 2087 
2446 2485 2489 2054 2055 2056 2450 2059 2058 
2060 2063 2068 2422 2465 2462 2069 2067 2072 
2071 2469 2076 2470 2473 2474 2115 2119 2080 
2517 2478 2085 2082 2084 2159 2088 2521 2091 
2092 2090 2490 2093 2094 2095 2096 2064 2097 
2101 2099 2104 2103 2108 2505 2109 2106 2107 
2112 2509 2111 2110 2116 2553 2118 2120 2155 
2557 2086 2123 2121 2124 2127 2132 2526 2131 
2135 2100 2537 2137 2139 2144 2138 2538 2145 
2143 2148 2545 2542 2146 2147 2152 2546 2151 
2156 2191 2593 2550 2154 2160 2195 2554 2128 
2122 2168 2163 2565 2167 2171 2569 2530 2134 
2173 2136 2175 2573 2140 2178 2179 2184 2183 
2188 2585 2582 2189 2187 2186 2229 2192 2586 
2190 2196 2231 2629 2633 2199 2200 2598 2594 
2202 2203 2605 2207 2172 2211 2570 2609 2176 
2215 2613 2574 2180 2218 2219 2220 2617 2223 
2224 2622 2227 2228 2267 2625 2232 2233 2236 
2630 2669 2235 2164 2239 2637 2634 2601 2204 
2208 2245 2243 2602 2206 2249 2212 2247 2606 
2251 2214 2253 2254 2216 2255 2614 2653 2654 
2259 2260 2658 2657 2263 2264 2662 2272 2268 
2666 2665 2273 2271 2275 2673 2240 2279 2638 
2677 2283 2248 2685 2642 2252 2287 2250 2293 
2291 2256 2296 2650 2295 2297 2300 2299 2694 
2697 2301 2303 2305 2304 2701 2702 2311 2307 
2705 2706 2709 2276 2315 2713 2674 2278 2244 
2280 2681 2641 2678 2325 2288 2323 2682 2292 
2327 2729 2686 2290 2333 2331 2336 2733 2690 
2335 2337 2334 2340 2737 2339 2302 2343 2738 
2308 2312 2347 2351 2316 2320 2284 2319 2718 
2721 2328 2363 2361 2324 2722 2326 2332 2369 
2367 2726 2330 2371 2376 2338 2375 2379 2777 
2342 2344 2348 2742 2346 2389 2352 2387 2750 
2350 2354 2355 2356 2753 2754 2357 2359 2358 
2399 2360 2758 2003 2364 2368 2762 2372 2366 
2007 2009 2766 2012 2013 2011 2015 2381 2380 
2384 2417 2778 2382 2025 2383 2023 2388 2786 
2386 2390 2392 2391 2393 2394 2395 2396 2794 
2397 2398 2039 2400 2437 2402 2404 2443 2841 
2408 2447 2448 2406 2846 2845 2806 2451 2452 
2453 2849 2853 2418 2420 2419 3182 2821 2814 
2423 2428 2427 2426 2429 2430 2432 2431 2826 
2830 2433 2436 2435 2834 2440 2479 2877 2444 
2483 2881 2842 2487 2488 2893 2454 2455 2456 
2850 2424 2461 2457 2459 2861 2818 2463 2468 
2862 2865 2466 2467 2472 2471 2869 2475 2476 
2873 2874 2519 2515 2480 2917 2482 2484 2523 
2882 2918 2921 2525 2486 2492 2491 2493 2497 
2460 2495 2854 2464 2458 2501 2499 2504 2502 
2503 2508 2905 2506 2507 2512 2513 2510 2511 
2516 2913 2910 2518 2559 2514 2555 2520 2914 
2957 2524 2522 2558 2599 2958 2529 2527 2531 
2496 2533 2494 2535 2500 2498 2541 2539 2544 
2941 2938 2543 2548 2942 2549 2547 2552 2949 
2946 2551 2556 2591 2950 2993 2597 2595 2560 
2954 2997 2528 2561 2563 2567 2922 2965 2532 
2571 2969 2534 2536 2575 2540 2577 2578 2579 
2581 2584 2583 2982 2588 2589 2587 2592 2986 
2590 2596 2631 3029 2990 2635 2600 2994 2998 
2562 2566 2568 2607 2962 2572 2611 2970 3009 
2576 2615 2580 2618 2619 2620 3017 2621 2623 
2624 3022 2627 2626 2628 2667 3025 3026 2632 
2671 3069 3030 2636 2564 2639 3034 2603 2645 
2608 2643 3045 3002 2610 2649 2612 2647 2651 
3006 3010 2616 2655 3014 3053 3054 2659 2660 
3057 3058 2661 2663 2664 3062 3061 2668 2707 
3066 3065 2670 2675 2672 3073 2604 2640 3001 
3038 2648 2683 3042 2646 2689 2652 2687 3089 
2656 2693 2691 2696 3093 2695 2700 2699 3094 
3097 2698 2703 2704 3098 3101 3102 2711 2708 
3105 3109 3106 2676 2680 3074 3077 2679 2644 
3041 3078 3081 2725 2688 2723 3082 2692 2727 
2731 2736 3090 3133 2734 2735 2740 3134 3137 
2739 2741 2744 3138 3141 2743 2745 2749 2710 
2712 2747 3110 3113 2714 2716 2717 2715 2720 
3114 2719 2684 3121 3118 2728 2763 2761 2765 
3122 3161 3165 2769 2732 2767 3126 3169 2730 
2773 2771 2776 2770 3173 3170 2774 2775 2780 
3177 2781 2779 2748 3146 2746 2752 2751 3149 
3150 2755 2756 3153 3154 3157 2724 2759 2757 
2760 2799 2797 2401 2403 2764 3162 2772 2405 
2768 2407 3166 2805 2409 2410 2413 2412 2411 
2416 2809 2810 2813 2415 2784 2785 2783 2782 
2788 2787 3185 2789 2790 2792 2791 3189 2793 
2795 2796 3193 2798 2439 2800 3197 3198 2802 
2804 2843 2808 2847 3245 2851 2816 2812 3210 
3214 2820 2819 3221 3217 2825 2828 2823 2827 
2822 3222 2829 2832 2831 3230 3229 2833 2836 
2835 3234 2838 2840 2879 3238 2844 2883 3281 
3285 2885 2848 2852 2887 3246 3250 2857 2856 
2855 3254 3253 2824 2859 3257 2863 2868 3265 
2866 2871 2867 2872 2875 2870 2876 2915 3270 
3274 3313 2878 2880 2919 3278 3317 2884 2959 
2888 3318 2889 2886 2891 2892 2890 3286 3289 
2897 2860 2895 2864 2858 2901 2899 2904 3301 
2902 2903 2908 3302 3305 2909 2906 2907 2912 
3309 3306 2953 2911 2916 3353 3310 2955 2920 
3357 2923 2925 2924 3325 3321 2926 2929 2927 
2931 2894 2896 2933 2900 2935 2937 2898 2939 
2944 3341 2945 2943 2948 3345 2947 2952 3349 
2951 2956 2991 3350 2995 2960 3354 3358 2928 
2963 2967 3322 2930 2932 2971 3369 2934 2973 
2936 2975 2977 2978 2940 2979 3377 3378 2981 
2985 2983 2984 3382 3381 3385 2989 2988 2987 
2992 3389 3386 3033 2996 3031 3390 3394 2999 
3000 3397 2961 2966 3005 2968 3007 3366 3405 
2972 3011 3370 2974 3013 2976 3015 3374 3413 
2980 3018 3019 3020 3417 3418 3021 3023 3024 
3421 3422 3027 3028 3425 3426 3032 3036 3433 
3430 3035 2964 3037 3039 3437 3003 3008 3043 
3445 3406 3402 3049 3012 3047 3051 3449 3016 
3055 3414 3453 3454 3059 3060 3457 3458 3063 
3064 3461 3462 3067 3068 3072 3469 3466 3071 
3075 3070 3434 3473 3004 3040 3438 3085 3048 
3083 3442 3046 3052 3087 3056 3050 3091 3096 
3450 3493 3095 3099 3100 3497 3103 3104 3501 
3505 3107 3111 3108 3470 3509 3076 3080 3079 
3044 3441 3478 3125 3088 3123 3525 3482 3086 
3129 3092 3127 3529 3131 3136 3130 3135 3140 
3534 3537 3139 3143 3502 3541 3112 3145 3147 
3116 3117 3115 3120 3517 3119 3084 3159 3481 
3518 3521 3128 3163 3522 3132 3167 3569 3171 
3176 3530 3570 3174 3175 3179 3538 3142 3144 
3181 3148 3545 3542 3152 3151 3550 3155 3156 
3554 3124 3160 3158 3199 3557 3558 2801 2803 
3164 3201 3172 3168 2807 3205 2811 2815 3574 
3213 2817 3178 3180 3184 3581 3578 3183 3186 
3188 3187 3582 3190 3192 3191 3590 3589 3194 
3195 3196 3594 2837 2839 3200 3597 3237 3598 
3241 3202 3204 3243 3249 3208 3212 3206 3609 
3216 3215 3218 3220 3219 3224 3618 3617 3621 
3225 3228 3227 3626 3226 3232 3231 3630 3629 
3233 3236 3275 3634 3633 3277 3240 3279 3242 
3248 3244 3645 3642 3646 3247 3251 3252 3650 
3255 3256 3654 3653 3261 3259 3260 3657 3262 
3263 3268 3661 3662 3665 3269 3266 3267 3272 
3271 3669 3666 3670 3273 3276 3673 3315 3280 
3319 3717 3283 3282 3284 3288 3686 3287 3292 
3291 3290 3689 3297 3293 3295 3296 3694 3693 
3264 3258 3299 3304 3697 3303 3308 3307 3312 
3709 3706 3311 3316 3351 3753 3314 3355 3320 
3714 3718 3323 3328 3682 3329 3326 3327 3332 
3333 3294 3331 3335 3300 3733 3737 3337 3298 
3339 3344 3738 3741 3342 3343 3348 3745 3346 
3347 3352 3749 3393 3356 3391 3359 3360 3365 
3363 3368 3362 3765 3762 3330 3367 3371 3766 
3334 3373 3336 3375 3773 3338 3340 3379 3380 
3778 3383 3384 3785 3781 3782 3388 3387 3392 
3789 3790 3395 3396 3429 3793 3324 3361 3399 
3761 3403 3407 3404 3805 3409 3372 3411 3770 
3376 3415 3774 3813 3419 3420 3818 3817 3423 
3424 3821 3822 3427 3428 3432 3829 3431 3435 
3400 3833 3364 3398 3401 3439 3801 3837 3408 
3443 3845 3410 3412 3447 3849 3810 3451 3416 
3455 3853 3854 3459 3460 3858 3463 3464 3861 
3865 3465 3467 3471 3826 3830 3436 3475 3440 
3477 3479 3877 3838 3485 3448 3483 3842 3446 
3489 3452 3487 3889 3456 3491 3495 3850 3893 
3494 3499 3500 3897 3498 3468 3503 3901 3862 
3472 3511 3507 3870 3909 3513 3474 3476 3515 
3444 3480 3878 3488 3523 3882 3486 3492 3527 
3496 3490 3533 3531 3536 3930 3539 3535 3898 
3504 3508 3902 3506 3549 3512 3547 3510 3514 
3551 3516 3520 3484 3519 3881 3918 3561 3528 
3563 3565 3922 3961 3526 3532 3567 3573 3571 
3575 3934 3973 3540 3577 3544 3938 3543 3548 
3585 3985 3546 3552 3587 3946 3989 3553 3555 
3556 3954 3559 3524 3560 3599 3958 3997 3562 
3203 3564 3601 3962 3572 3568 3566 3207 3209 
3211 3576 3580 3579 3584 3978 3981 3223 3583 
3586 3588 3625 3982 3591 3592 3235 3593 3595 
3596 3239 3600 3602 3641 3608 3604 3610 3606 
3611 3607 13 3613 3614 3616 3615 21 17 
18 3620 3619 22 61 3622 3624 3628 3663 
26 65 30 3632 3631 33 3636 3635 3675 
77 38 3638 3677 3640 3679 45 3643 3647 
3612 50 3649 3652 3651 54 53 3655 3656 
3658 3659 3660 3699 62 101 3664 3668 69 
3667 3672 3671 3674 3676 3713 78 3715 41 
3678 3644 3680 3648 3685 3683 3687 3692 3691 
3690 3695 3696 3701 3700 3704 3705 3702 3703 
3708 109 106 3707 3712 114 110 3710 3711 
3716 3751 3681 3719 3720 125 3725 3688 3723 
3728 3726 3729 3727 3732 134 3731 3730 3735 
3736 138 3698 3739 3744 142 145 3742 3743 
3748 149 146 3746 3747 3752 153 157 3750 
3754 3755 3756 118 3721 3757 3684 3759 3722 
3763 3768 3769 3767 3772 173 3734 3771 3775 
178 3777 3740 3779 3780 181 182 3783 3784 
3788 3786 3787 3791 3760 3795 3797 158 3758 
3724 3799 205 202 3802 3803 3808 3804 206 
3809 3807 3811 174 213 3776 3815 3814 217 
3819 218 3820 221 225 3823 3824 190 3825 
3792 3827 3831 3794 3796 3835 3800 3764 3798 
3839 245 241 3841 3843 3844 3806 3812 3847 
3851 214 253 3816 3855 254 3857 3859 3860 
222 3828 3863 3832 3871 3869 273 234 3834 
3836 3873 3875 238 278 3840 3879 281 3885 
3848 3883 3846 3852 3887 3856 293 3891 3896 
297 3895 3894 3899 3864 3867 3868 3866 3872 
3911 3907 3874 3913 3876 3915 318 317 3917 
3880 3919 282 3925 3888 3923 3929 3886 3892 
3927 294 3890 3933 3931 3935 298 3937 3900 
3904 305 345 302 3905 3903 3908 3945 3949 
3906 3912 3947 3910 3914 3953 3916 3951 3955 
357 3921 3884 3920 3928 3963 326 3965 3926 
3969 3932 3967 3971 334 3936 3940 338 3939 
3944 3941 385 3943 3942 3948 389 346 3952 
3987 354 3950 3956 3991 3957 3959 3924 3960 
3999 3603 3964 3605 3966 3968 3972 373 3970 
3975 3976 3974 3977 3980 381 3979 3984 382 
25 3983 3623 3988 29 386 3990 3986 3627 
3992 390 394 3993 3994 3995 3996 398 37 
3637 3998 3639 4000 
type 1 4000 int
1 1 1 1 1 1 1 1 1 
1 1 1 1 1 1 1 1 1 
1 1 1 1 1 1 1 1 1 
1 1 1 1 1 1 1 1 1 
1 1 1 1 1 1 1 1 1 
1 1 1 1 1 1 1 1 1 
1 1 1 1 1 1 1 1 1 
1 1 1 1 1 1 1 1 1 
1 1 1 1 1 1 1 1 1 
1 1 1 1 1 1 1 1 1 
1 1 1 1 1 1 1 1 1 
1 1 1 1 1 1 1 1 1 
1 1 1 1 1 1 1 1 1 
1 1 1 1 1 1 1 1 1 
1 1 1 1 1 1 1 1 1 
1 1 1 1 1 1 1 1 1 
1 1 1 1 1 1 1 1 1 
1 1 1 1 1 1 1 1 1 
1 1 1 1 1 1 1 1 1 
1 1 1 1 1 1 1 1 1 
1 1 1 1 1 1 1 1 1 
1 1 1 1 1 1 1 1 1 
1 1 1 1 1 1 1 1 1 
1 1 1 1 1 1 1 1 1 
1 1 1 1 1 1 1 1 1 
1 1 1 1 1 1 1 1 1 
1 1 1 1 1 1 1 1 1 
1 1 1 1 1 1 1 1 1 
1 1 1 1 1 1 1 1 1 
1 1 1 1 1 1 1 1 1 
1 1 1 1 1 1 1 1 1 