# vtk DataFile Version 4.0
Generated by LAMMPS
ASCII
DATASET POLYDATA
POINTS 4000 float
5.71873 1.14813 1.29421 3.73466 -0.848389 1.23459 5.59133 3.3475 3.30579 
3.69841 1.0395 3.31548 5.69081 -0.970057 3.24247 9.28853 1.04029 1.00753 
11.0274 1.09881 -0.912314 7.3702 3.40116 1.09414 7.30507 0.794964 -1.04085 
12.8459 1.12622 1.19048 10.9567 1.08435 3.1932 14.8235 1.31867 -0.954362 
16.5901 1.02282 1.41203 20.2274 1.07865 1.0174 18.4195 1.08843 -0.996878 
22.1864 1.045 3.25406 24.0509 1.02515 1.17337 20.3515 -1.03535 -1.04359 
22.0442 1.19046 -1.04183 25.8393 -0.901902 1.18117 27.5889 1.12683 0.974978 
25.7279 0.885108 -1.15542 29.594 -1.08478 1.24285 29.5661 1.21642 3.30109 
25.7743 3.3248 1.02118 27.6089 -0.923974 3.23145 31.3233 0.951037 1.0562 
33.0133 -1.14319 0.989642 29.3837 3.1175 1.00302 33.1379 3.24937 1.19555 
32.9825 1.1721 3.31902 38.4644 1.19154 1.15857 34.8181 1.07435 1.29547 
34.8302 -0.926123 3.20472 3.85084 3.07404 1.08347 5.60723 5.42837 1.30999 
5.78808 2.95838 -1.11455 9.12108 5.48654 0.88771 11.0466 5.27431 -0.971773 
7.50855 5.38629 3.23603 7.21717 5.44332 -1.00622 9.11394 7.59879 -1.01246 
10.8621 3.3006 1.23127 14.7787 3.25992 1.11424 12.9914 5.26495 1.17486 
12.9566 3.30845 -1.04091 12.9958 7.22408 -1.04087 14.9056 5.24534 -1.22403 
18.4115 3.1501 1.14396 16.6414 5.2216 1.02465 20.5106 5.31936 0.975577 
18.4753 5.43885 -1.0372 16.732 3.32431 -0.963149 22.1122 3.14549 1.07726 
23.7866 5.20705 1.22596 22.1777 7.53888 1.18785 22.0622 5.28595 3.50366 
23.83 3.22339 3.33535 20.2809 3.27853 -0.985505 23.9396 7.46824 -0.838524 
27.5764 5.38344 1.11885 25.6914 7.37664 1.25122 25.6137 5.36742 -1.04286 
29.2702 5.29051 -0.9517 31.2648 5.32352 1.09418 31.1187 7.44481 3.16017 
33.024 5.36899 -0.992164 32.9535 7.50609 1.03758 38.4773 5.24698 1.32133 
36.6731 3.08997 1.17268 34.9315 5.38584 1.31806 34.9117 7.47708 -1.1877 
34.8942 3.23053 3.33295 3.69254 7.37254 1.03185 5.74454 9.6426 1.20921 
3.67283 11.7448 1.14461 11.1054 7.28725 0.999748 7.4055 7.64806 1.20995 
9.26708 9.60701 0.991194 7.32946 9.62536 -1.19882 14.8354 7.39382 1.1021 
12.9585 9.4611 0.988775 14.8541 11.7971 1.04627 14.8654 9.50297 -0.9943 
12.9862 11.6999 -1.21252 16.5332 7.44885 -1.02473 18.517 7.28804 1.01561 
16.576 9.37174 1.18057 18.6219 9.60027 -0.983459 16.7565 7.38075 3.35596 
20.4686 7.49774 -1.13294 20.2801 9.46535 1.30953 22.2412 11.6214 0.990046 
24.043 9.57647 1.22537 23.8875 11.76 -1.01314 20.2236 11.6182 -0.979835 
27.5042 9.50319 1.17492 29.4663 9.58231 -1.23567 27.5379 7.45681 -0.870195 
25.5955 11.8548 1.09035 25.8118 9.81085 3.24144 29.4492 7.42051 1.0175 
29.4211 11.8277 1.02441 31.2044 9.74073 1.0398 31.1713 11.642 3.20859 
38.2989 9.70688 1.11083 36.7044 7.54186 1.08077 34.8962 9.47785 1.07467 
36.6216 12.0014 1.07694 38.5843 7.51874 3.16333 36.582 9.52003 -1.19321 
5.69823 13.8237 1.25535 3.83494 16.0405 1.14812 5.49537 11.7363 -0.843859 
3.7472 13.8342 -0.84829 5.39305 16.0357 -1.0365 7.58418 11.6886 1.15923 
11.076 11.5977 1.00359 9.2576 13.8639 0.886712 7.19174 13.8207 -0.955824 
11.1391 16.0726 0.950494 11.1064 13.7305 -1.18444 13.0346 11.7538 3.10457 
12.9313 13.7649 1.17822 14.8531 13.6955 -0.952223 12.9677 15.9065 -1.03395 
18.3747 11.7062 1.14332 16.7319 14.0342 1.35861 18.5687 16.1037 1.29064 
20.459 16.068 3.29538 16.7445 11.6011 -0.888946 16.7298 15.8304 -0.997486 
20.0724 16.1586 -0.998693 20.2534 13.8919 1.10789 23.7507 13.8622 1.003 
22.0889 13.9374 3.30676 22.0848 15.8986 0.998029 23.8452 15.9064 3.12572 
27.5379 13.8776 1.12735 25.6304 13.8803 -0.970231 25.6895 15.9488 1.19799 
25.7044 13.9083 3.25396 27.6942 16.1099 3.24667 33.1441 11.7535 1.10868 
31.1884 13.925 0.954205 32.8496 16.1836 1.07144 29.4357 16.174 1.18398 
31.2005 16.1037 3.2342 33.064 13.758 3.12839 38.5638 13.9391 1.06239 
34.7071 14.0348 1.05041 34.8652 15.9459 3.31689 5.55957 18.1899 1.06924 
1.85255 18.1308 1.12225 5.81568 15.9233 3.1351 1.88942 20.3767 -1.13726 
5.77413 20.2892 -0.796356 7.42974 16.0864 0.962734 9.26093 18.0685 1.00641 
7.59795 20.2507 1.07196 9.32718 20.2827 -1.06089 7.39296 18.0747 -1.08857 
14.7566 15.9026 1.28348 12.9615 18.0136 1.14838 13.1066 20.2119 -0.961761 
14.9226 20.0459 1.19837 16.7105 18.1157 1.41214 20.3582 18.1168 1.29694 
18.5306 18.1809 3.425 22.0928 20.2622 1.16922 23.9084 18.0343 1.10819 
20.3318 20.1351 3.34974 22.439 18.0838 3.28106 27.5487 18.2201 1.03285 
25.6305 20.2114 1.03318 29.4634 18.3118 3.22373 27.4226 20.4406 -1.13155 
29.2454 18.1911 -0.957595 31.2149 18.2475 1.1223 29.3737 20.3713 1.10619 
31.3398 20.5268 3.36238 33.133 18.0992 -1.13678 31.2719 20.2635 -1.1379 
36.7304 15.9807 1.14091 38.5227 16.0022 3.16595 34.8288 18.1258 1.22204 
36.6618 20.4148 0.999194 36.6625 17.96 3.49952 38.2543 20.1443 3.23489 
3.6359 20.1654 1.19644 5.60281 22.2352 1.08154 5.58608 24.5948 -1.05225 
3.59249 22.3032 3.18408 1.87499 22.3963 1.10839 3.70664 24.5124 1.11558 
9.00586 22.4705 1.03634 7.42364 22.3902 -1.18221 10.8901 20.2728 1.09045 
11.0108 22.301 3.16057 11.0507 22.3638 -1.09957 12.9666 22.1864 0.983862 
11.0388 24.4427 1.02802 12.9295 24.5204 -0.915565 18.5054 20.1449 1.36811 
16.9082 22.3822 1.19014 18.6524 24.617 0.988105 16.6751 20.0216 3.44835 
18.3174 22.1471 3.34209 18.3686 22.4094 -1.00529 16.6163 24.4416 -0.788505 
20.2874 22.3967 1.0619 22.1758 22.2743 3.34235 23.7778 22.4156 1.16229 
22.107 24.5194 1.01538 23.8549 24.5256 3.24762 20.3133 24.4429 3.24347 
27.6451 22.4004 0.975408 25.7341 22.3682 3.17528 27.4439 24.7038 3.2531 
25.8106 24.4402 1.08671 25.5114 22.4751 -1.17032 29.4719 22.3525 3.18826 
33.0655 20.2553 1.15833 31.3479 22.3466 1.12161 29.3074 24.5799 1.18085 
33.1663 22.3616 3.34976 33.0558 24.7973 1.08699 30.9844 24.5872 -1.03135 
34.4908 22.46 1.10141 36.6619 24.5777 1.00291 34.9622 24.3846 3.18668 
36.5135 22.3933 -1.09474 5.5393 26.6854 0.901517 3.77297 28.781 1.21035 
3.86628 26.6317 3.17238 5.72421 28.7144 3.23804 1.9471 28.8033 -0.886461 
7.31377 24.5688 1.08484 9.25266 26.6142 1.23005 7.48607 28.7996 0.931256 
7.23892 26.4172 3.06654 9.12641 28.9234 -1.02515 14.6944 24.455 1.13616 
12.913 26.5502 1.11917 14.8017 28.6398 1.27054 10.9303 28.6303 1.08658 
14.6568 26.6705 3.4057 16.6436 24.5867 3.18789 16.5783 26.6737 1.25028 
18.283 28.8573 1.32402 18.1854 26.6736 -0.901027 20.1812 26.8222 1.1765 
23.9241 26.5645 1.2756 21.9533 26.7069 3.28184 23.7591 28.84 3.08494 
24.0238 24.6073 -1.00533 22.1005 26.7159 -0.809101 27.6125 24.4896 -1.071 
27.5482 26.7061 1.17469 25.8432 28.5541 1.11382 27.6032 28.7287 3.15059 
29.3602 28.8668 1.02376 27.496 28.9327 -1.257 31.1099 26.7607 0.860725 
32.9827 26.6839 3.19498 31.1629 28.836 3.06969 29.3297 26.7491 -1.09413 
38.553 26.5139 1.04876 34.9683 26.7189 1.11965 38.6144 28.7138 3.17781 
36.7356 28.6858 1.05723 36.7268 26.6233 3.2319 5.70181 30.9459 1.06658 
3.95729 30.6725 3.20935 3.847 33.0719 1.1887 9.38673 30.9652 1.0425 
9.23726 32.9445 3.26181 7.50094 30.8644 3.36901 10.926 30.7586 3.38151 
12.9616 30.7006 1.19673 14.7772 30.9683 3.34323 16.3748 30.8712 1.34686 
18.2681 31.0265 3.3097 18.2535 32.9506 1.22634 20.2822 30.8007 1.18596 
16.5811 28.7481 3.35165 22.1533 28.8767 1.06738 20.0905 28.7366 -1.02191 
20.1896 28.956 3.26674 23.9928 30.9334 1.05137 23.9139 33.0532 3.2069 
22.1033 30.8664 3.27343 22.0704 30.8396 -1.04433 27.4139 30.8986 1.03999 
27.4931 32.9937 3.08024 25.7165 30.9454 -0.990172 33.055 28.9361 1.08139 
29.2313 30.9166 3.01237 29.3517 32.9963 1.00088 31.2606 31.0463 1.07973 
33.1836 30.8819 3.21054 38.4657 30.9612 1.10281 35.0335 30.9677 1.07764 
36.8055 33.1251 1.12463 5.43003 35.2225 1.251 5.61584 33.1252 3.52117 
3.74985 35.241 3.41106 3.96737 34.9656 -0.922608 7.41365 33.104 1.16862 
9.43523 35.0001 1.0639 9.26736 37.2186 3.23036 11.2359 32.8665 1.25377 
11.2039 37.2606 1.11669 7.58874 37.202 1.17506 7.43075 35.2215 3.2919 
14.6859 32.8879 1.2103 12.8858 35.0941 1.17816 14.6956 35.3161 3.33436 
14.6915 34.8503 -0.858701 14.8556 37.3363 1.15831 11.1862 35.1534 3.48014 
12.9193 33.1251 3.22931 16.5254 35.1203 1.27802 20.2935 35.0998 1.16409 
18.3382 37.1623 1.13793 20.2238 32.9394 3.17345 18.3239 35.1332 -0.968998 
22.0893 32.9151 1.00592 23.6718 35.2602 1.1534 22.1324 37.447 0.980105 
25.7943 33.2209 1.06871 27.7479 35.1347 1.16193 27.6 37.239 3.33896 
25.6934 35.1683 -0.872258 33.1378 33.0723 1.08483 29.3966 35.1816 3.17386 
31.1986 35.0354 1.05447 29.5259 37.3132 1.05349 31.2756 32.9561 3.14592 
33.0785 35.0116 3.09372 38.6208 35.2143 1.05568 35.0027 35.2413 1.01876 
34.9969 32.9881 3.27194 38.3573 37.2561 3.28016 38.6335 37.1711 -1.06786 
3.69284 37.3312 1.19493 5.5822 37.3406 3.21741 5.61677 39.3548 1.17243 
1.93501 39.6413 1.10431 3.71914 39.6 3.30758 3.98662 39.2544 -0.960479 
11.0577 41.517 1.06014 7.5358 41.5102 1.27714 9.42058 39.2406 1.14937 
11.2577 39.4666 3.29614 11.1728 39.2675 -1.09978 12.9319 37.3966 3.24991 
14.8701 41.5221 1.07466 12.9256 39.6249 1.09254 14.8062 39.3113 -0.867231 
14.9117 39.4149 3.19681 13.0055 41.6185 3.04198 16.6567 37.2029 3.30443 
16.6985 39.4238 1.15209 18.3235 41.6984 1.03618 18.3602 39.279 3.34243 
18.3072 39.2957 -1.15157 23.7933 41.5994 -0.83947 20.2343 37.2904 3.05777 
22.0813 41.4319 1.12971 20.0325 39.2524 1.08245 20.2035 41.4991 3.13422 
24.0268 39.4803 0.93682 22.0872 39.3466 3.12204 25.6638 37.2275 1.02743 
27.7032 39.3247 1.25905 25.7663 39.5255 3.30874 29.429 39.354 3.24568 
33.0026 37.2365 1.27043 31.2696 39.3721 0.995321 31.2554 37.1156 3.19631 
33.1877 39.3119 -0.933163 36.6775 41.4594 1.29395 34.9091 37.2238 -0.95091 
34.9972 37.145 3.01092 36.7778 37.3766 1.01204 34.9561 39.3214 1.17328 
36.684 39.1977 -0.904651 5.5219 1.17736 5.4093 2.08347 1.20289 5.57744 
3.7423 -1.01168 5.40213 3.83509 1.06203 7.54515 7.65896 1.12429 3.39165 
9.27883 -1.06559 3.34189 9.56542 1.18772 5.46249 7.46857 3.18217 5.51213 
7.48146 1.0851 7.5649 11.0683 1.31888 7.76387 14.7639 1.02055 3.50161 
12.7307 1.0203 5.12733 12.9512 3.32219 3.10956 14.7024 3.10626 5.36871 
14.8993 -0.978397 5.53856 16.6317 3.0848 3.36071 18.5014 1.15236 3.1972 
[...]
POINT_DATA 4000
FIELD FieldData 6
id 1 4000 int
8 3 445 402 405 12 10 47 6 
16 410 14 20 24 18 422 28 21 
22 27 32 26 31 430 67 429 36 
35 71 75 434 4 40 437 43 48 
45 52 50 446 46 89 51 55 56 
53 93 54 59 60 64 58 57 63 
68 103 462 465 61 105 72 107 66 
70 76 513 74 115 44 79 80 117 
477 83 88 123 91 87 92 86 95 
96 135 94 133 97 99 100 98 497 
101 104 143 108 145 141 112 110 109 
147 506 111 151 116 553 84 119 120 
159 481 118 128 163 125 122 165 127 
131 132 126 171 130 533 136 134 173 
139 140 179 581 137 177 181 144 148 
542 183 585 152 146 187 546 589 155 
156 195 191 593 554 124 160 597 168 
164 565 201 205 167 172 207 209 166 
175 176 213 215 180 184 578 223 188 
621 582 192 227 590 229 190 196 231 
633 194 233 199 561 200 239 598 601 
203 208 245 602 204 243 212 206 211 
610 210 216 251 253 219 220 259 617 
618 218 257 224 622 228 263 665 661 
232 626 669 267 226 630 235 236 271 
634 275 273 240 279 677 238 248 283 
642 685 281 247 252 287 646 289 255 
256 295 291 654 657 260 299 258 264 
268 662 705 265 262 269 272 307 709 
311 309 276 674 713 270 244 280 681 
319 678 288 682 323 292 729 686 690 
296 694 300 698 339 304 697 303 301 
701 308 745 702 302 312 749 306 315 
710 351 316 714 284 320 359 328 725 
722 322 327 332 769 331 371 367 726 
335 336 734 334 375 730 733 340 344 
379 741 338 343 348 383 347 352 789 
346 355 750 356 391 753 754 324 360 
757 761 361 363 765 368 364 762 362 
11 7 372 770 370 773 15 376 374 
774 413 777 380 19 778 378 25 781 
23 384 421 388 782 387 392 786 790 
395 396 793 394 39 397 797 399 400 
398 408 404 403 802 406 409 412 447 
806 810 414 416 453 455 415 457 418 
461 420 459 818 861 419 817 424 428 
825 425 426 469 427 432 826 471 433 
436 435 475 431 438 440 479 838 837 
485 442 443 448 483 449 452 846 450 
454 493 451 850 456 491 460 458 499 
464 501 463 862 468 505 467 466 470 
472 507 473 474 476 515 441 444 478 
480 841 878 917 482 488 523 885 484 
521 881 489 486 487 492 529 889 494 
490 495 496 535 498 500 539 504 502 
503 508 545 902 945 509 512 547 549 
511 510 514 516 555 518 519 517 557 
520 559 918 525 522 528 524 530 527 
526 532 571 531 926 534 536 933 537 
538 540 938 541 543 544 548 981 583 
985 552 587 591 550 551 950 556 954 
558 560 599 562 605 563 568 962 569 
566 567 572 966 570 970 573 574 613 
575 576 973 974 577 580 579 619 978 
584 588 625 623 982 1021 586 592 627 
990 993 594 595 596 994 635 631 564 
600 639 637 961 603 608 604 1001 1002 
609 611 607 606 612 649 614 615 616 
1014 651 620 659 1018 624 628 1065 663 
1061 1022 629 632 671 667 1026 1030 1069 
636 675 1073 638 640 1037 641 679 1038 
645 643 648 1085 683 647 689 652 687 
653 650 691 656 1093 655 658 660 1057 
1097 699 664 668 1062 703 1105 1101 666 
670 672 673 676 711 715 644 680 719 
1041 1081 688 1082 1125 692 1086 1129 727 
693 696 695 1090 1133 700 739 704 708 
1102 1145 706 707 712 1109 1106 1149 751 
716 1110 718 717 684 720 1117 723 728 
763 1122 1165 732 767 1169 1126 731 736 
735 775 771 1130 737 738 740 785 742 
743 744 748 1185 1142 746 747 1146 752 
755 756 795 1154 721 759 724 758 760 
1121 401 768 764 766 407 772 1166 809 
1173 411 776 1170 779 417 780 783 423 
784 788 787 792 1186 829 794 791 796 
1193 798 799 439 800 845 808 804 1205 
805 1202 812 807 1209 847 853 813 816 
811 814 1214 821 820 859 824 857 819 
822 865 863 828 1265 830 832 1229 834 
871 836 875 833 835 877 840 1237 842 
843 844 848 883 1245 849 1249 851 852 
887 854 855 856 895 893 860 858 1258 
905 864 868 1262 1301 869 866 870 867 
872 909 907 1266 873 874 876 915 1273 
1274 879 880 1241 1278 882 888 884 923 
1281 886 892 927 931 1289 1290 891 890 
896 894 898 937 897 899 901 900 903 
904 908 941 906 912 951 910 947 913 
911 914 916 1314 953 1313 1310 919 920 
959 1318 925 922 928 1325 924 963 930 
929 932 1326 934 936 935 975 1334 977 
939 940 944 979 942 943 948 983 1385 
1381 949 946 952 989 955 956 991 957 
958 997 921 960 1397 999 1358 965 968 
1005 1362 969 967 971 972 1409 1011 1013 
976 1015 1374 980 1019 984 988 1023 1382 
1421 1029 987 986 992 1031 1027 1389 995 
996 1035 1433 964 998 1000 1039 1361 1045 
1003 1008 1445 1006 1009 1007 1012 1047 1051 
1010 1053 1016 1453 1055 1414 1017 1020 1418 
1417 1025 1024 1063 1422 1028 1032 1071 1067 
1426 1033 1034 1036 1004 1401 1040 1438 1437 
1042 1043 1048 1044 1083 1049 1046 1052 1089 
1087 1050 1054 1056 1091 1095 1058 1060 1059 
1064 1068 1103 1066 1072 1107 1469 1070 1113 
1075 1074 1076 1473 1077 1079 1078 1080 1119 
1478 1088 1084 1485 1482 1092 1131 1529 1127 
1489 1490 1094 1096 1099 1100 1098 1498 1497 
1137 1501 1104 1108 1141 1509 1111 1506 1112 
1151 1147 1114 1115 1116 1553 1153 1118 1120 
1518 1123 1521 1124 1128 1522 1525 1132 1167 
1530 1569 1533 1135 1136 1134 1573 1138 1140 
1139 1179 1545 1143 1144 1148 1189 1152 1546 
1187 1150 1155 1156 1195 1554 1161 1159 1157 
1158 1160 1558 1597 1197 1162 801 1565 1163 
803 1168 1561 1172 1171 1566 1174 815 1175 
1176 1574 1177 1577 1181 1180 1178 1184 1578 
1182 1183 823 1188 1585 1225 1589 1191 827 
1586 1192 1590 831 1190 1194 1196 1593 1594 
839 1199 1164 1198 1200 1598 1208 1203 1204 
1602 1601 1206 1212 1606 1609 1253 1610 1210 
1216 1215 1211 1218 1257 1220 1259 1222 1221 
1224 1228 1261 1226 1267 1232 1669 1230 1231 
1234 1236 1233 1235 1633 1201 1238 1240 1279 
1239 1285 1243 1242 1248 1642 1645 1247 1246 
1252 1254 1250 1255 1251 1256 1650 1260 1658 
1263 1264 1305 1268 1303 1269 1666 1272 1709 
1275 1271 1270 1670 1311 1276 1713 1277 1244 
1280 1282 1283 1288 1284 1681 1685 1725 1682 
1291 1286 1287 1292 1331 1686 1690 1293 1294 
1333 1296 1295 1335 1297 1298 1299 1300 1339 
1302 1345 1304 1343 1308 1307 1306 1309 1347 
1312 1349 1351 1353 1315 1316 1317 1319 1320 
1718 1321 1322 1323 1328 1365 1324 1721 1761 
1327 1329 1332 1729 1330 1373 1336 1730 1375 
1734 1337 1341 1338 1340 1344 1379 1738 1342 
1348 1781 1350 1346 1352 1354 1355 1356 1393 
1753 1754 1757 1359 1357 1360 1758 1797 1363 
1368 1403 1369 1367 1366 1372 1411 1766 1809 
1370 1371 1376 1813 1378 1377 1380 1419 1383 
1384 1388 1782 1429 1387 1386 1392 1786 1394 
1391 1395 1390 1396 1794 1398 1399 1364 1400 
1405 1441 1402 1408 1404 1443 1407 1406 1449 
1410 1412 1413 1415 1416 1455 1810 1814 1457 
1461 1420 1424 1857 1425 1423 1465 1428 1463 
1822 1427 1826 1432 1467 1434 1435 1431 1830 
1430 1436 1439 1440 1479 1442 1448 1444 1885 
1447 1451 1446 1452 1450 1850 1853 1456 1454 
1893 1495 1854 1458 1459 1460 1858 1464 1462 
1468 1503 1869 1466 1472 1507 1909 1866 1470 
1873 1475 1471 1474 1476 1874 1477 1480 1519 
1483 1488 1523 1881 1486 1487 1492 1531 1889 
1493 1494 1491 1496 1894 1535 1499 1901 1897 
1500 1504 1539 1505 1502 1508 1902 1512 1551 
1510 1511 1910 1513 1515 1514 1516 1953 1517 
1557 1481 1484 1520 1528 1524 1925 1922 1921 
1527 1526 1532 1929 1969 1534 1536 1575 1930 
1934 1538 1537 1540 1579 1937 1541 1543 1945 
1544 1542 1583 1548 1549 1547 1946 1552 1550 
1555 1556 1595 1559 1560 1599 1958 1957 1965 
1562 1563 1568 1962 1564 1961 1570 1567 1207 
1572 1571 1213 1576 1974 1217 1219 1581 1580 
1582 1981 1584 1223 1625 1588 1227 1587 1986 
1592 1629 1591 1596 1990 1993 1600 1998 1605 
1608 1641 1603 1604 1643 2005 1649 1612 1607 
1647 1614 1616 2014 1617 1618 1621 1620 1624 
1622 1628 1623 1661 1665 1663 1626 1632 1667 
1634 1630 1636 1675 2030 1638 1640 1679 2037 
2077 1648 1683 2085 1644 2081 1646 1689 1652 
2046 2089 1653 1654 1693 1655 1651 1656 1697 
1657 1659 1660 1699 1662 1701 1705 1664 1668 
1703 2105 1672 1671 2070 2109 1673 1674 1711 
1676 1715 1677 1678 1680 1719 1688 1684 1723 
2082 2125 1687 1692 1727 1731 1694 1691 1696 
1695 2094 1741 1700 1698 2098 2137 1739 1702 
1704 1708 1743 1706 1707 2106 1712 1747 1710 
1714 1716 1755 2110 2114 2153 1717 1720 1759 
2118 2157 2121 1722 1728 2165 1724 2161 1726 
1732 1767 1769 1733 1735 1736 2130 2134 2173 
1737 1740 1744 1779 2138 2177 2181 1745 1742 
1783 1748 1785 1750 1746 1749 1789 1752 1787 
2150 1793 1751 1756 1795 1760 1799 1765 1805 
1762 1763 1768 2162 2201 1770 1772 1811 1771 
1773 1776 1774 1775 1815 2174 1777 1780 1778 
1817 1821 2178 1784 1788 1791 1792 1827 2186 
2190 1790 1833 1796 2194 2233 1764 1798 1800 
1839 1837 1802 1803 1808 2202 1843 1841 2209 
1807 1806 1849 1812 1816 1855 2213 2214 1819 
1820 1818 1861 1859 2218 2257 1825 1865 1823 
1824 1828 2265 2222 1829 1831 1832 2226 1834 
1871 1835 1836 1801 1838 1877 1804 1840 1842 
1845 1848 1844 1847 1846 1852 1887 1891 2289 
2246 2250 1851 1856 2293 2254 1895 2253 1860 
1899 2258 1862 1864 2261 1905 1863 1868 1867 
1872 1907 1870 1875 1876 1915 1878 1879 1880 
1917 1919 1883 1882 1888 1886 1892 1890 1927 
2286 1931 2290 1896 1933 2333 1898 1900 2298 
1941 1904 2301 1903 1908 2302 1906 1947 1912 
2306 1951 1914 1911 1913 1916 1884 1918 1920 
2318 1923 1928 1963 1924 2361 2322 1926 1932 
2326 1967 2369 1935 1973 1936 2330 1975 1971 
2334 2373 1977 1939 1938 1940 1944 1979 2337 
2377 1942 1943 1948 2342 1949 2349 2346 1952 
1989 1950 1954 2353 1955 1956 1995 2350 2354 
1959 1960 1997 1999 2358 2365 1968 1964 2001 
1966 1972 1970 2366 1615 1611 1613 1976 2013 
2370 1978 1619 1980 1982 1985 1983 1984 1988 
2025 1627 1987 1992 2029 1994 1631 1991 1635 
1996 2394 2033 1637 2397 1639 2000 2002 2045 
2008 2043 2041 2004 2006 2012 2047 2409 2010 
2053 2016 2011 2017 2018 2020 2057 2418 2421 
2417 2022 2061 2024 2028 2063 2065 2023 2026 
2032 2069 2469 2034 2036 2071 2035 2430 2433 
2038 2040 2042 2048 2044 2083 2485 2481 2049 
2052 2091 2087 2054 2050 2051 2056 2055 2095 
2093 2097 2058 2060 2059 2099 2497 2062 2465 
2064 2068 2462 2101 2066 2067 2072 2509 2466 
2111 2107 2073 2075 2074 2076 2473 2474 2079 
2078 2117 2080 2088 2084 2086 2090 2129 2092 
2490 2127 2096 2133 2141 2100 2537 2501 2505 
2102 2103 2104 2108 2502 2506 2112 2149 2147 
2113 2115 2116 2513 2510 2514 2119 2120 2518 
2123 2122 2128 2522 2124 2163 2565 2126 2132 
2526 2167 2131 2569 2136 2135 2175 2139 2140 
2144 2179 2538 2145 2142 2185 2143 2148 2545 
2183 2541 2151 2146 2187 2152 2549 2546 2155 
2154 2156 2554 2593 2159 2158 2160 2557 2558 
2205 2168 2203 2164 2561 2169 2166 2172 2170 
2211 2207 2566 2171 2176 2570 2574 2180 2184 
2577 2578 2221 2585 2182 2188 2625 2189 2192 
2227 2231 2586 2193 2195 2191 2196 2590 2237 
2199 2197 2198 2200 2597 2208 2204 2206 2212 
2247 2210 2609 2606 2215 2216 2614 2653 2219 
2217 2220 2617 2657 2618 2223 2224 2225 2622 
2228 2230 2229 2626 2232 2669 2267 2234 2273 
2235 2236 2275 2630 2238 2277 2239 2240 2279 
2245 2242 2243 2248 2645 2642 2244 2285 2249 
2251 2252 2646 2689 2649 2255 2256 2650 2654 
2291 2297 2260 2697 2259 2299 2658 2661 2701 
2262 2264 2263 2268 2270 2269 2266 2272 2311 
2274 2271 2313 2276 2241 2281 2278 2681 2280 
2678 2319 2283 2282 2288 2321 2685 2323 2682 
2287 2292 2329 2327 2690 2294 2295 2296 2335 
2694 2733 2300 2304 2698 2339 2305 2741 2303 
2702 2308 2309 2307 2312 2749 2310 2315 2314 
2316 2355 2317 2284 2320 2325 2328 2324 2725 
2722 2331 2332 2336 2734 2371 2375 2730 2338 
2340 2344 2379 2737 2777 2341 2345 2343 2381 
2348 2383 2745 2781 2389 2347 2352 2750 2387 
2351 2356 2391 2754 2793 2359 2357 2360 2399 
2758 2721 2797 2761 2362 2003 2363 2368 2405 
2009 2007 2367 2372 2766 2374 2376 2015 2774 
2378 2019 2380 2384 2778 2021 2385 2382 2388 
2386 2031 2027 2392 2393 2390 2395 2396 2794 
2364 2039 2398 2400 2798 2402 2408 2801 2443 
2449 2410 2406 2412 2411 2806 2413 2810 2416 
2414 2453 2455 2813 2415 2814 2420 2818 2419 
2457 2817 2422 2424 2428 2825 2865 2426 2467 
2432 2869 2826 2434 2436 2431 2435 2873 2404 
2401 2438 2440 2437 2837 2441 2445 2442 2448 
2444 2845 2450 2451 2447 2446 2452 2454 2853 
2491 2456 2495 2493 2461 2458 2460 2459 2464 
2463 2862 2468 2503 2472 2909 2866 2470 2475 
2471 2476 2874 2913 2870 2478 2477 2479 2480 
2878 2525 2482 2483 2488 2925 2523 2881 2489 
2529 2487 2486 2492 2531 2889 2494 2496 2533 
2933 2535 2498 2499 2500 2941 2539 2504 2902 
2508 2945 2507 2906 2512 2515 2511 2516 2914 
2910 2517 2519 2484 2520 2521 2918 2528 2563 
2921 2527 2532 2567 2969 2926 2530 2536 2534 
2930 2571 2934 2581 2540 2544 2579 2977 2543 
2542 2942 2548 2583 2985 2547 2551 2587 2552 
2550 2949 2946 2553 2555 2556 2953 2954 2559 
2524 2560 2958 2562 2568 2564 2962 2605 2965 
2572 2966 2970 2575 2573 2576 2613 3013 2615 
2621 2580 2584 2619 2978 2582 2982 2623 2588 
2629 2589 2592 2591 2989 2595 2594 2596 2993 
2994 2599 2637 2598 2600 3037 2603 2602 2608 
2643 2604 3005 3001 2610 2607 2611 2612 3049 
3009 2616 3014 2651 2655 2620 2624 3018 2659 
3057 3061 3017 2628 2631 2627 2632 2633 2634 
2635 2636 2673 3034 2638 2601 2639 2640 2641 
3038 2648 2644 3085 2647 2652 2691 3050 2693 
2656 2695 3053 3054 2660 2664 3101 2665 2662 
2663 2668 2703 2666 2667 2671 2670 3066 2672 
2709 2713 2674 2675 2676 2715 3074 2677 2717 
2679 2680 3041 2683 2688 3082 3081 2686 2687 
2692 3089 3090 3086 2696 3094 2735 3093 2699 
2700 3098 3097 3137 2705 2704 3102 2708 2706 
2707 2712 3106 2710 2751 2753 2714 2711 2716 
3110 2719 3117 2684 2718 2720 2757 3118 2723 
2728 2724 3122 2726 2731 2729 2727 2732 3129 
2767 2769 3133 3130 2736 2775 2771 3134 2738 
2740 2739 3138 3141 3177 3145 2744 2742 2743 
2748 2746 2747 2752 3189 2755 2756 2759 2760 
3161 3158 2765 2762 2403 2763 2768 2770 2407 
2772 3170 3166 2773 2776 3174 3173 3181 2779 
2780 2784 2785 2425 2782 2783 2423 2788 3182 
2789 2786 2429 2427 2787 3186 2829 2792 2791 
2795 2790 2796 2764 2439 2799 2800 3197 3198 
2802 2808 2803 3205 2809 2812 2807 2849 2847 
3249 2851 3209 2811 2816 2815 3214 2821 2820 
2824 2819 3218 2857 3257 3221 2822 2828 2823 
3225 2832 3229 2867 2827 3269 2830 3230 2833 
2871 2834 2836 2875 2838 2804 2840 2842 3245 
2843 2848 2850 2846 2852 2887 2893 2856 2855 
2854 2895 3293 2897 2858 2860 2859 2899 3258 
2861 2864 2901 2863 2868 2903 3266 2872 2907 
2876 2915 3274 3313 2877 2841 2844 2879 2880 
2919 3317 2882 2883 2885 2888 2884 2929 2886 
2892 3286 2891 2890 2894 2896 2931 2898 2900 
2904 2937 2905 3302 2908 2911 3309 2912 3306 
3349 3310 2916 2951 2917 2920 2923 2922 2928 
3361 2924 2963 3325 2927 2932 2967 3329 3326 
2936 3330 2935 2975 3334 2938 2939 2940 2979 
3338 2943 2944 2948 3345 3342 2947 2952 2987 
3346 3350 2950 2955 2956 3353 3354 2957 2959 
2960 3358 2999 3357 2968 2964 3362 3365 2972 
2973 2971 3370 2974 2976 3015 3373 2980 2981 
2984 3025 2983 2988 3382 3425 2986 2991 3389 
2992 3390 2990 3027 2995 2996 3394 3393 2961 
2998 2997 3397 3000 3039 3398 3003 3002 3008 
3445 3043 3010 3011 3006 3007 3012 3409 3047 
3016 3414 3055 3019 3020 3417 3418 3022 3065 
3021 3024 3023 3028 3026 3029 3031 3429 3426 
3030 3032 3033 3073 3035 3433 3036 3075 3004 
3040 3401 3045 3042 3048 3485 3442 3046 3051 
3052 3446 3056 3454 3091 3095 3450 3058 3060 
3059 3064 3099 3497 3062 3063 3068 3105 3465 
3462 3067 3069 3072 3070 3071 3076 3111 3079 
3077 3078 3044 3080 3083 3088 3525 3084 3123 
3481 3489 3087 3092 3490 3127 3493 3131 3096 
3494 3533 3100 3104 3498 3537 3103 3502 3108 
3143 3545 3109 3107 3147 3112 3549 3151 3506 
3115 3153 3113 3114 3116 3513 3119 3120 3159 
3125 3128 3522 3561 3565 3126 3132 3526 3135 
3136 3534 3573 3139 3140 3144 3541 3142 3148 
3185 3149 3146 3187 3152 3589 3150 3154 3193 
3155 3156 3195 3157 3121 3124 3160 3199 3558 
3597 2805 3165 3163 3162 3168 3164 3562 3169 
3167 3172 3566 3171 3176 3175 3574 3178 3217 
3179 3180 3184 3578 3183 3582 3188 2831 3586 
3192 3190 2835 3191 3194 3196 2839 3200 3237 
3598 3202 3208 3243 3201 3602 3210 3206 3212 
3211 3207 3609 3213 3216 3613 3215 3220 3224 
3259 3222 3621 3223 3228 3625 3226 3267 3232 
3626 3630 3234 3236 3235 3634 3204 3238 3240 
3277 3242 3248 3285 3283 3642 3250 3247 3246 
3252 3287 3251 3649 3253 3254 3256 3255 3295 
3653 3260 3264 3297 3265 3262 3305 3665 3261 
3263 3662 3268 3303 3270 3669 3271 3272 3670 
3273 3275 3276 3315 3279 3278 3241 3244 3280 
3319 3717 3282 3288 3685 3681 3682 3289 3292 
3327 3290 3729 3294 3291 3296 3333 3690 3337 
3299 3298 3300 3339 3741 3301 3304 3308 3702 
3341 3705 3311 3307 3312 3351 3710 3749 3314 
3316 3318 3281 3284 3320 3718 3322 3321 3323 
3328 3363 3324 3765 3761 3332 3726 3369 3769 
3331 3335 3336 3730 3734 3371 3773 3377 3340 
3737 3745 3344 3343 3348 3385 3742 3347 3352 
3746 3789 3355 3750 3356 3753 3754 3359 3360 
3399 3758 3757 3368 3364 3403 3762 3805 3367 
3366 3372 3407 3809 3766 3375 3770 3376 3374 
3415 3379 3381 3380 3378 3817 3383 3384 3388 
3785 3782 3386 3391 3387 3392 3790 3786 3793 
3395 3396 3794 3400 3797 3798 3439 3405 3402 
3408 3449 3411 3406 3412 3849 3806 3413 3410 
3416 3455 3461 3457 3419 3420 3424 3857 3818 
3421 3422 3423 3428 3430 3431 3427 3432 3471 
3829 3435 3434 3436 3438 3437 3404 3440 3477 
3801 3443 3441 3448 3444 3842 3483 3885 3841 
3447 3452 3491 3487 3846 3453 3451 3456 3893 
3854 3458 3501 3459 3460 3464 3897 3499 3505 
3463 3865 3862 3468 3469 3470 3466 3467 3472 
3511 3473 3474 3475 3476 3515 3913 3479 3478 
3480 3517 3878 3519 3482 3488 3523 3882 3486 
3529 3492 3886 3527 3496 3495 3894 3535 3933 
3890 3500 3504 3898 3503 3902 3508 3905 3543 
3901 3509 3510 3507 3512 3906 3909 3514 3516 
3518 3521 3557 3484 3520 3957 3528 3524 3925 
3922 3563 3531 3532 3926 3929 3530 3930 3567 
3569 3536 3538 3540 3539 3579 3937 3938 3542 
3544 3548 3945 3546 3547 3551 3552 3587 3950 
3550 3593 3553 3555 3554 3556 3954 3595 3559 
3560 3958 3599 3997 3203 3568 3962 3572 3969 
3970 3966 3570 3571 3576 3575 3581 3577 3580 
3219 3978 3584 3981 3585 3583 3588 3985 3982 
3231 3227 3592 3989 3990 3590 3233 3591 3633 
3594 3596 3239 3564 3600 3601 3961 3998 2 
5 3605 3608 3603 3643 3610 3606 3612 9 
3651 3614 3616 3611 3615 3617 3618 3657 3620 
3619 3624 3622 3623 3628 3629 30 3632 3671 
69 3627 3673 34 3636 3635 73 1 3641 
3637 3604 3638 38 3640 77 41 42 85 
3645 3648 3644 49 3647 3646 3652 3650 3691 
3654 3693 3655 3656 3658 3661 3659 3660 3699 
3664 3701 62 65 3663 3668 3666 3667 3709 
3672 3713 3674 3675 3676 78 3679 3677 3678 
3680 3719 82 3683 3688 3725 3689 3687 3686 
3692 90 3727 3694 3695 3696 3697 3698 3700 
3739 102 3703 3704 3708 3743 149 3711 106 
3706 3707 3712 113 114 153 3714 3715 3716 
3755 81 121 3684 3720 3721 3723 3722 3728 
3724 3763 129 3732 3731 169 3767 3735 3733 
3736 3775 3771 138 3777 3738 3740 3779 185 
3744 142 3748 3783 150 3747 3752 154 3751 
3756 193 157 197 161 158 3759 3760 3799 
162 3768 3803 3764 170 3772 3807 174 3813 
3776 3774 3811 3815 178 217 3778 3780 3819 
182 3781 3784 3788 186 3787 189 3792 3791 
3827 3833 3795 3796 3835 237 3837 198 3800 
3839 241 202 3802 3808 3845 3843 249 3812 
3810 3847 3814 3853 3816 214 3855 3851 261 
3821 3820 3824 222 3825 221 225 3822 3823 
3828 3863 3826 3831 3832 230 3867 3873 3834 
3830 3871 234 3836 3875 3804 3838 3840 242 
285 3848 3844 3883 246 3852 250 3891 293 
3850 3856 254 3858 3859 3860 3899 3861 3864 
3868 305 3869 3866 266 3872 3911 274 3870 
3874 3876 277 278 3917 3877 3879 3880 3919 
321 3881 3921 282 3888 3884 3923 286 329 
3889 3887 3892 3927 290 294 3895 3931 3896 
3935 337 297 3900 298 3904 341 3903 3908 
3907 310 3912 3951 3949 314 3910 313 3915 
3914 3916 3955 3918 317 318 3920 3959 325 
3928 3924 326 330 3932 373 3934 333 3936 
3939 3940 3944 3979 377 345 381 3942 3941 
342 3943 3948 3946 3947 349 3952 350 3987 
354 353 3953 3956 3995 357 358 3960 3999 
365 3965 3963 3968 366 3607 3967 369 3972 
13 3971 3975 3973 3976 3974 17 3977 3980 
3984 3983 385 382 3988 3986 389 3991 390 
386 29 3992 3993 3631 393 33 3994 3996 
37 3964 3639 4000 
type 1 4000 int
1 1 1 1 1 1 1 1 1 
1 1 1 1 1 1 1 1 1 
1 1 1 1 1 1 1 1 1 
1 1 1 1 1 1 1 1 1 
1 1 1 1 1 1 1 1 1 
1 1 1 1 1 1 1 1 1 
1 1 1 1 1 1 1 1 1 
1 1 1 1 1 1 1 1 1 
1 1 1 1 1 1 1 1 1 
1 1 1 1 1 1 1 1 1 
1 1 1 1 1 1 1 1 1 
1 1 1 1 1 1 1 1 1 
1 1 1 1 1 1 1 1 1 
1 1 1 1 1 1 1 1 1 
1 1 1 1 1 1 1 1 1 
1 1 1 1 1 1 1 1 1 
1 1 1 1 1 1 1 1 1 
1 1 1 1 1 1 1 1 1 
1 1 1 1 1 1 1 1 1 
1 1 1 1 1 1 1 1 1 
1 1 1 1 1 1 1 1 1 
1 1 1 1 1 1 1 1 1 
1 1 1 1 1 1 1 1 1 
1 1 1 1 1 1 1 1 1 
1 1 1 1 1 1 1 1 1 
1 1 1 1 1 1 1 1 1 
1 1 1 1 1 1 1 1 1 
1 1 1 1 1 1 1 1 1 
1 1 1 1 1 1 1 1 1 
1 1 1 1 1 1 1 1 1 
1 1 1 1 1 1 1 1 1 