# vtk DataFile Version 4.0
Generated by LAMMPS
ASCII
DATASET POLYDATA
POINTS 4000 float
4.40075 -0.0396592 3.5148 6.28613 -0.75083 1.5914 3.88929 -2.25528 1.75975 
4.35647 -0.172696 40.5334 6.0276 -2.68385 -0.197282 6.09614 -2.45899 3.68769 
8.70941 1.07964 1.7124 10.5116 -1.44189 1.57081 8.36311 -1.0199 40.7262 
8.42545 -0.910586 3.64615 10.7223 0.453888 3.76113 7.94566 -2.94388 1.64135 
12.5896 0.216833 1.89198 14.2834 -2.2531 1.82762 12.2711 -1.86278 4.01789 
14.4668 -0.253906 3.79336 16.3784 -0.567155 1.75306 18.4948 -3.00106 1.83516 
18.591 -1.04651 3.71271 16.251 -2.65439 -0.118258 20.3326 -3.39474 3.72881 
16.283 -2.4946 3.78323 20.4652 -1.33939 1.5357 24.326 -2.19094 1.80793 
22.2503 -1.69927 40.7006 24.6235 0.0872059 -0.190024 22.0873 43.6326 1.78211 
22.2569 -1.62657 3.82068 28.4168 -2.64404 1.67456 26.5304 -0.401371 1.8453 
28.5044 -0.64686 3.90086 26.3225 -2.57953 3.70643 24.6442 -0.100225 3.66552 
28.3942 -0.628111 40.6828 30.4861 -1.07077 1.72191 32.2492 -3.34146 1.56163 
32.2871 -1.30594 3.63605 30.0831 -3.02185 3.83358 30.1967 -2.87466 40.5957 
36.8678 0.169639 1.57125 34.4798 -1.54014 1.66251 36.5216 -1.84163 3.45798 
34.1745 43.8568 3.72212 34.5557 0.291829 3.7911 36.3946 -1.85615 40.6887 
34.6838 0.536547 -0.181143 4.69856 1.77638 1.43439 6.73825 3.34316 1.70047 
6.79638 1.3939 3.61495 4.79599 3.67212 3.67397 8.92759 5.02458 1.76022 
10.8649 2.73253 1.99504 8.88074 3.13282 3.77527 11.1586 4.53036 3.9112 
8.83449 2.79684 40.7313 14.6691 1.92209 1.73475 12.8309 4.3819 1.77731 
12.9092 2.02698 3.86085 15.0303 3.62326 3.77376 18.5974 1.01253 2.01808 
16.9358 3.40756 1.75397 18.7397 3.17373 -0.289402 18.9458 3.20395 3.79761 
16.6492 1.32488 3.94937 22.6431 0.474383 1.79066 20.5869 0.837799 -0.134884 
20.835 2.68483 1.72403 23.2239 4.45787 1.69949 20.7261 0.633327 3.88475 
22.919 2.49901 3.74082 24.9944 2.04375 1.73682 27.1086 3.71425 1.64411 
28.7448 1.20171 1.77677 25.3976 4.0185 3.68853 26.8463 1.63012 4.06855 
32.6945 0.860708 1.6959 30.8036 1.27443 3.83683 30.9615 3.09195 1.84866 
30.5244 1.1341 -0.0152085 28.9993 3.37475 3.80514 33.0628 2.78086 3.86448 
32.8635 2.93533 -0.151463 37.4139 4.15751 1.77708 34.9297 2.42683 1.89004 
33.277 4.86482 1.83111 36.9945 1.99034 3.7587 35.2693 4.4371 3.77932 
36.9174 2.17414 -0.186322 35.3023 4.39963 -0.0270002 6.99448 5.13078 3.891 
5.17902 5.67914 1.69155 3.08824 6.0872 40.759 3.45944 7.98089 1.82538 
5.40079 7.48878 3.86042 5.3648 7.50465 40.6807 3.20065 6.06465 3.6853 
7.04264 5.23793 40.6342 7.26062 7.26001 1.73297 11.2858 6.70802 1.90783 
9.50787 8.85495 1.73923 7.54581 9.22901 -0.263565 9.3386 6.76898 3.75251 
9.29082 6.90749 40.6553 7.50877 9.32668 3.95851 11.4355 8.49461 3.88876 
15.0005 5.77975 1.7494 13.4293 8.14279 1.61929 13.1179 6.27771 3.98735 
15.4837 7.79885 -0.191687 15.4149 7.86483 3.8276 19.0675 5.22376 1.69675 
17.4188 7.47691 1.80372 19.5236 9.43431 1.85011 17.1318 5.51353 3.66383 
17.2414 5.53323 -0.165786 19.4675 7.30698 40.6604 19.4356 7.25804 3.8323 
21.3613 6.83471 1.69405 23.4475 8.92433 1.74378 23.4716 6.53502 3.72143 
21.196 4.95834 3.73377 21.7092 9.03243 3.73763 25.3632 6.5108 1.82889 
27.3278 5.77867 3.88118 27.4497 8.01289 1.79428 25.5893 8.45582 3.72679 
27.1754 5.9918 -0.133861 31.5299 7.13429 1.66701 29.25 5.60458 1.92802 
31.8673 9.15904 3.6247 31.3857 5.13726 3.97006 29.6775 7.55811 3.92812 
29.6252 7.4222 -0.308643 35.4789 6.52285 1.83798 35.6377 8.51864 -0.229894 
34.0038 8.90396 1.75136 33.6629 6.81043 3.90889 35.9112 8.44644 3.86403 
5.70779 9.67217 1.90237 3.91204 11.9538 1.97267 6.4704 13.5401 1.74171 
3.70633 9.79557 3.80865 5.90283 11.6702 4.06909 3.67419 9.94863 40.7737 
5.90799 11.5027 -0.274308 7.84203 11.2745 1.81826 10.2613 12.9281 1.83176 
8.32902 13.1566 4.0097 9.73308 10.8232 3.88871 11.7461 10.4159 1.89001 
13.9495 12.1852 1.79376 13.8752 10.1059 3.88914 12.1269 12.669 -0.192537 
15.8385 9.82937 1.73035 16.0344 11.7213 3.69452 12.08 12.4485 3.84278 
17.8262 11.6457 1.55596 19.7935 11.3446 3.80048 17.8957 13.6684 3.8532 
20.195 13.431 1.83825 17.7304 9.48878 40.7763 17.6076 9.54401 3.86831 
21.7716 11.2176 1.94638 23.7387 10.7358 3.64867 23.8186 12.976 1.66323 
22.0471 13.143 3.72107 25.7223 10.3919 1.81477 28.0154 11.8695 1.86643 
26.0729 12.3882 3.90731 27.8638 10.0623 3.82782 28.4803 13.82 3.85673 
29.8138 9.51431 1.68823 32.1034 11.0876 1.77801 29.7552 11.6551 40.6271 
30.2327 13.4315 1.6975 32.2973 13.2352 40.7168 29.9914 11.5755 3.81106 
32.252 13.1696 3.95739 36.1436 10.5289 1.80566 34.4391 12.8405 1.84031 
36.4258 12.4457 -0.196291 34.0743 10.8499 3.84587 33.9884 10.8577 40.5751 
36.4024 12.1989 4.00948 4.11171 13.9265 -0.313379 4.20944 14.0517 4.03257 
4.46336 15.897 1.70014 6.63114 17.804 1.7082 6.38366 15.584 3.59996 
8.40162 15.423 1.7703 10.6565 16.7443 1.80923 10.3497 14.8713 3.85395 
8.7043 17.258 3.86191 10.5167 14.8865 -0.292681 12.3293 14.5536 1.85727 
14.3397 16.2521 1.81271 14.1962 14.1673 4.0021 12.6168 16.708 3.86681 
16.1581 13.9919 1.64953 12.6121 16.611 40.6751 18.2886 15.7041 1.65097 
16.582 17.9323 1.62159 18.5608 17.81 3.76826 16.3096 15.965 3.86853 
18.158 13.878 -0.24317 18.4548 17.8574 -0.240433 22.3418 15.287 1.9591 
20.58 17.4269 1.8694 24.4952 16.8346 1.7351 20.1941 15.3957 3.82105 
22.8873 17.0601 3.96462 24.3272 14.6784 3.89854 24.3279 15.0331 -0.246259 
26.4143 14.3044 1.77872 28.4022 14.0006 40.7841 26.6733 16.2984 3.70029 
28.6867 15.8998 1.83171 29.0499 17.9885 3.75128 28.8185 17.6995 -0.275014 
32.6972 15.1595 1.6902 31.0941 17.4726 1.66023 32.9419 17.0908 40.7509 
30.713 15.435 3.82015 32.944 17.0736 3.68241 36.7276 14.3694 2.00224 
34.7554 14.464 -0.265783 34.9145 16.6643 1.83087 36.8027 16.3962 3.91671 
34.723 14.5662 3.85555 36.8465 16.2936 -0.221278 4.86283 19.9854 1.86091 
6.89816 19.4658 3.7776 5.32168 22.0153 3.88991 7.33474 21.5976 1.84668 
4.64864 17.7948 3.81503 5.30806 22.0626 -0.168249 9.05503 19.0598 1.61185 
10.9668 21.2021 1.61446 10.7603 18.9799 3.60013 9.13182 21.3299 3.8096 
11.007 19.1514 -0.153032 12.8303 18.7494 1.76206 14.9159 20.4325 1.69471 
14.6598 18.4061 3.77168 13.1022 20.8738 -0.274771 12.7535 21.0103 3.88362 
15.1505 22.441 3.77666 14.6253 18.4331 40.6624 18.9367 20.0765 1.65811 
19.0725 21.6182 3.75557 17.081 22.211 1.88706 16.8291 20.0432 3.85037 
16.9077 20.2494 -0.16278 22.8941 19.054 1.89986 21.0065 19.383 3.70433 
21.0677 21.5056 1.90846 23.465 21.1076 3.69832 20.8386 19.3862 40.7751 
26.8519 18.1635 1.78229 25.3601 20.5195 1.91199 27.5997 22.212 1.84835 
25.6142 22.5751 3.77806 25.0432 18.7236 3.9312 27.4139 20.2864 3.93732 
29.1127 19.9149 1.68682 31.2547 19.3228 -0.126418 31.4912 21.6063 1.81252 
29.4446 22.0753 -0.102434 33.2753 19.1062 1.83557 31.1891 19.5336 3.74528 
29.6571 21.8801 3.91369 33.6229 21.1708 3.91288 37.4129 20.3123 -0.197528 
37.1372 18.2299 1.7868 35.1534 18.7667 40.7593 35.5625 20.7473 2.02541 
3.09726 20.3763 3.85141 35.0989 18.5686 3.85582 5.48189 24.0533 1.85303 
5.84481 25.7528 3.98707 7.50691 25.8577 1.68708 7.70495 23.6729 3.84384 
7.4199 23.9784 -0.219953 9.29826 23.4842 1.6527 10.9668 23.1985 3.99456 
11.5182 25.2935 1.69696 9.52042 25.5431 3.61759 9.45109 25.6592 -0.261256 
13.1261 23.0283 1.56871 15.3321 24.5542 1.90578 13.8008 26.8328 1.82984 
13.4391 24.8373 3.99792 15.6795 26.4245 3.73515 15.1577 22.4887 -0.185539 
13.4791 24.9421 40.7861 15.7522 26.6693 -0.168385 17.7304 26.0383 1.85361 
19.4357 23.7406 1.79882 17.3812 24.0751 3.76924 19.9159 25.7688 3.67412 
23.5836 23.0156 1.76863 21.7603 25.3781 1.6838 21.7002 23.4762 3.73993 
23.8702 24.9977 3.71568 25.5355 22.547 -0.2893 25.8114 24.6416 1.66207 
27.7729 24.4097 -0.164821 27.9232 26.2675 1.75417 26.078 26.7683 40.7841 
27.7312 24.3566 3.8141 26.0745 26.7594 3.72947 29.7258 24.0295 1.8819 
31.8042 23.5552 -0.158087 31.9968 25.5123 1.77404 31.9293 23.6033 3.72997 
30.0557 25.9846 3.74291 3.45663 22.2454 1.72015 3.54153 24.3439 3.81666 
33.7603 23.166 1.67885 36.1714 24.4657 1.51688 35.8308 22.6747 3.72135 
34.2678 25.1347 3.91295 3.91018 26.3049 1.78449 6.02983 28.3308 1.64141 
4.09235 30.665 1.61583 4.06539 28.4948 3.88173 6.23694 30.1836 3.78801 
7.71762 27.8435 3.82147 3.82315 28.3543 -0.172224 6.16503 30.2639 40.7749 
9.59038 27.6972 1.72647 8.00655 30.0009 1.5366 9.91408 29.7066 3.79961 
11.6497 27.2781 3.80985 10.0558 29.6782 -0.273887 7.81319 28.0472 40.6277 
12.0019 29.172 1.69197 14.4369 30.8876 1.81029 16.1117 28.4825 1.93853 
16.2911 30.6272 -0.241383 14.0485 29.0413 3.72627 13.8513 28.9335 -0.196723 
18.391 30.1576 1.74981 20.164 27.8419 1.80784 16.4512 30.4155 3.8904 
18.1123 28.0696 3.59529 20.3648 29.5823 3.93173 24.0097 26.8425 1.82322 
22.5489 29.4536 2.04507 24.1183 28.9795 -0.201887 24.2641 29.0651 4.00422 
22.1938 27.391 3.75444 22.0554 27.4343 40.6947 26.1609 28.6758 1.90734 
28.2322 28.3037 -0.17285 26.3489 30.6631 -0.0662597 28.4976 30.3116 1.97971 
28.5208 28.4709 3.94698 26.4264 31.0387 3.88024 30.1643 27.9577 1.8675 
32.3832 29.5696 1.79989 32.4005 27.5527 3.91583 30.7762 29.8312 3.94454 
36.1769 26.8238 -0.14755 34.2512 27.2054 1.92012 36.5264 28.9387 1.71338 
36.4554 26.9762 3.64829 34.3608 29.2439 -0.206883 34.7304 29.2346 3.72475 
6.18485 32.2006 1.7131 4.54244 34.5448 1.69746 4.54847 32.6739 3.72714 
6.45515 34.4442 3.79103 10.2589 31.6807 1.63245 8.49692 34.0782 1.69937 
8.3069 32.0833 3.66514 10.5707 33.8152 3.63242 10.641 33.6985 40.7737 
8.43318 32.0858 -0.215772 12.6595 33.3619 1.56468 14.5881 33.1943 40.6676 
14.917 34.9118 1.59118 12.7756 35.2952 40.6147 12.8666 35.4255 3.66822 
12.2278 31.4182 3.64149 14.5287 33.0119 3.63752 12.3992 31.4369 -0.161177 
16.4803 32.5028 1.8297 18.737 34.2898 1.34617 16.8295 34.5569 3.7854 
18.5187 32.0916 3.81291 18.538 32.147 -0.268764 22.7483 31.565 3.90076 
24.6491 31.1416 1.96322 22.4986 31.5732 -0.177654 20.6615 31.8845 1.73548 
22.8763 33.4064 1.89063 21.1093 33.8456 -0.251309 20.6981 33.9002 3.75137 
23.1963 35.5779 3.75235 26.9316 32.7021 1.71037 24.7979 33.1013 -0.250726 
25.4015 34.9995 1.63155 29.1512 34.0849 1.71024 28.9249 32.1908 3.98035 
[...]
POINT_DATA 4000
FIELD FieldData 6
id 1 4000 int
405 7 3 2 5 766 12 11 9 
409 410 372 16 15 413 414 20 19 
418 17 421 417 24 28 22 65 23 
422 32 67 469 426 465 30 36 35 
434 430 33 4 40 401 437 438 38 
77 8 47 406 445 52 51 449 450 
49 55 56 453 454 59 60 58 458 
457 63 61 64 103 461 462 68 72 
71 505 466 75 473 76 73 470 477 
74 43 79 80 402 441 41 78 446 
48 42 83 485 85 442 46 87 91 
92 86 489 89 486 490 95 96 493 
94 494 99 100 139 497 97 98 498 
104 108 502 501 541 107 509 112 506 
109 115 111 517 474 513 110 44 81 
119 478 481 88 123 128 482 525 82 
125 127 132 526 529 131 136 533 130 
135 534 530 140 538 577 144 137 537 
143 545 148 542 147 151 549 510 553 
116 120 153 155 157 514 557 84 159 
121 518 118 521 122 522 163 168 565 
167 172 569 566 169 171 176 573 570 
175 170 179 180 578 574 138 178 183 
184 187 581 585 546 185 152 150 550 
156 593 193 160 195 197 554 597 124 
158 199 561 558 161 203 605 602 208 
562 202 207 212 609 606 209 211 215 
613 213 610 614 174 219 621 220 617 
217 188 582 223 586 221 191 192 231 
629 589 590 196 194 235 233 200 594 
633 637 201 164 198 239 601 598 243 
642 248 645 245 247 649 251 646 249 
216 255 256 653 657 214 253 254 259 
224 618 622 227 228 625 626 229 232 
230 271 269 630 669 236 234 275 634 
673 204 641 240 279 638 677 244 283 
284 681 682 685 281 285 252 287 689 
650 289 246 291 295 260 297 654 293 
264 263 658 661 662 267 268 266 666 
665 265 272 270 309 311 670 709 276 
315 674 713 278 280 319 678 317 717 
288 323 721 725 292 327 686 690 329 
286 296 294 300 333 694 693 697 290 
299 304 698 701 301 705 307 305 303 
308 302 702 745 312 306 347 351 710 
706 749 316 314 753 355 714 318 320 
359 757 718 758 357 328 363 722 761 
726 322 331 332 330 729 336 733 326 
335 340 734 737 337 339 344 738 741 
338 341 343 348 342 742 785 352 389 
387 346 746 789 356 391 350 750 793 
754 393 354 324 395 360 797 399 368 
364 762 765 1 730 367 371 769 366 
770 375 376 774 374 777 380 773 379 
384 778 381 781 383 388 382 782 425 
25 27 392 386 429 786 31 396 790 
433 390 37 794 39 400 798 397 398 
407 768 805 1166 412 411 810 809 772 
416 415 814 813 420 419 817 821 818 
424 463 822 428 865 432 467 869 826 
471 436 830 873 403 440 801 834 838 
806 408 447 845 451 849 452 850 455 
456 853 854 459 460 857 858 464 503 
861 901 862 468 507 905 866 472 475 
476 909 877 870 443 404 479 841 802 
846 448 483 885 842 487 492 886 491 
890 889 495 496 894 893 499 897 500 
898 539 941 504 543 902 508 512 906 
945 511 480 917 913 874 444 519 878 
881 488 882 523 925 528 527 532 926 
929 535 531 536 933 930 937 540 579 
934 938 544 548 942 981 516 547 910 
949 515 520 555 957 914 484 918 559 
921 922 563 965 568 962 567 572 969 
966 571 576 973 970 575 580 977 974 
1017 583 584 978 946 985 551 953 552 
591 950 556 560 595 954 993 997 524 
599 958 961 603 1005 1002 608 607 612 
1006 1009 611 1010 616 1013 615 619 620 
1014 1021 588 587 986 982 989 592 631 
990 596 635 994 1033 600 1001 564 639 
998 1037 643 1041 1042 1045 647 648 1049 
652 1046 651 655 1053 1050 1057 623 624 
1022 1018 627 628 1025 1026 1029 632 1030 
671 1069 636 675 1034 1073 604 640 679 
1038 1077 644 683 684 1081 1082 687 688 
1085 1086 691 656 660 1089 1054 659 664 
1061 1058 663 1062 667 1065 668 1066 707 
672 1109 1070 711 676 715 1113 1074 680 
719 1078 1117 723 724 1121 1122 692 727 
1125 1090 695 700 1097 1094 1093 699 704 
1098 1101 703 708 1102 1145 1105 712 1106 
747 1149 1110 751 716 1153 1114 755 759 
720 1157 1118 1158 728 763 1161 1126 1198 
696 731 1133 736 1129 735 1137 740 1134 
739 744 1141 1138 743 748 1142 1185 752 
1146 787 1189 756 791 1150 1193 1154 795 
799 760 800 1197 767 764 732 1162 1165 
1130 1170 1169 771 775 776 1174 1173 1177 
780 779 1178 784 1181 783 423 788 1182 
825 427 792 829 1186 431 796 1190 833 
439 435 1194 837 803 807 1202 1205 812 
811 1210 1209 1172 816 815 1213 1214 820 
819 1218 1217 1221 824 828 863 1222 1261 
1265 832 867 1226 1269 871 836 1230 1234 
840 804 1238 1277 1206 808 847 1245 851 
852 1249 1250 855 856 1254 1253 859 860 
1257 1258 864 903 1262 1301 868 872 907 
1266 1305 875 876 1270 1274 1273 1313 843 
879 880 1241 1278 1246 848 883 1285 887 
891 892 1289 1286 1290 1293 895 896 1294 
899 1297 900 939 1298 904 943 1302 1341 
908 912 1309 1306 911 915 916 1310 1314 
1242 844 919 1281 1317 888 923 928 1325 
1282 927 932 1326 1329 935 931 1330 936 
1333 940 979 1337 1334 1338 944 948 1345 
1342 947 951 1349 1346 1350 920 955 1357 
1353 884 1318 959 1321 1322 963 1365 968 
1369 967 972 1366 971 976 1370 1373 1377 
975 980 1374 1378 983 987 984 1381 1382 
952 991 956 1385 1389 960 1354 995 1393 
1397 924 1361 999 1358 1362 1003 1405 1402 
1008 1007 1012 1406 1409 1011 1016 1410 1413 
1414 1015 1019 1020 1417 1418 988 1023 1421 
1425 992 1390 1031 1386 996 1035 1394 1433 
1000 1437 1401 964 1039 1398 1043 1044 1441 
1442 1445 1047 1048 1449 1446 1052 1055 1051 
1453 1454 1024 1059 1457 1461 1027 1028 1426 
1422 1429 1032 1071 1430 1469 1036 1075 1473 
1434 1004 1040 1079 1438 1477 1083 1084 1481 
1482 1087 1088 1485 1489 1091 1056 1450 1095 
1493 1060 1064 1063 1458 1497 1067 1465 1068 
1462 1466 1107 1072 1470 1509 1111 1076 1115 
1513 1474 1080 1119 1517 1478 1518 1123 1124 
1521 1525 1092 1127 1486 1529 1096 1100 1533 
1494 1490 1099 1498 1501 1104 1505 1103 1108 
1502 1506 1112 1147 1549 1510 1151 1116 1553 
1155 1514 1120 1159 1160 1557 1558 1128 1163 
1565 1522 1131 1132 1136 1530 1526 1135 1534 
1140 1537 1139 1144 1538 1541 1545 1143 1148 
1542 1585 1152 1589 1187 1546 1550 1156 1191 
1593 1195 1199 1200 1561 1554 1597 1168 1164 
1201 1562 1167 1171 1570 1573 1566 1569 1175 
1176 1574 1180 1577 1179 1184 1581 1578 1183 
823 1188 1225 1582 827 1192 1586 1229 831 
1196 1233 1590 1237 839 835 1594 1598 1208 
1204 1641 1602 1212 1610 1207 1211 1606 1609 
1216 1215 1614 1613 1220 1219 1618 1617 1621 
1224 1228 1263 1661 1622 1665 1267 1232 1630 
1626 1236 1235 1634 1275 1633 1240 1279 1677 
1638 1247 1243 1642 1645 1649 1251 1252 1650 
1653 1255 1256 1654 1259 1260 1658 1657 1660 
1264 1303 1701 1662 1271 1268 1272 1669 1666 
1276 1670 1673 1674 1315 1244 1280 1717 1678 
1646 1248 1283 1685 1288 1681 1291 1287 1689 
1292 1686 1690 1295 1296 1694 1693 1299 1697 
1300 1339 1698 1700 1304 1308 1705 1702 1703 
1307 1312 1709 1706 1311 1316 1351 1713 1710 
1753 1319 1320 1714 1718 1682 1323 1725 1729 
1327 1332 1726 1335 1331 1730 1336 1733 1734 
1340 1344 1737 1741 1738 1343 1348 1745 1742 
1347 1352 1749 1746 1789 1355 1356 1750 1754 
1284 1721 1359 1757 1328 1363 1368 1762 1722 
1765 1367 1769 1372 1766 1371 1376 1773 1770 
1375 1379 1778 1380 1777 1384 1383 1781 1785 
1782 1388 1387 1391 1786 1360 1395 1797 1793 
1790 1324 1758 1399 1761 1403 1805 1802 1408 
1407 1412 1806 1809 1411 1415 1813 1774 1814 
1419 1420 1817 1818 1423 1424 1821 1822 1392 
1427 1431 1825 1829 1396 1794 1435 1833 1400 
1404 1364 1801 1798 1439 1837 1443 1444 1842 
1841 1451 1447 1448 1845 1810 1849 1416 1455 
1853 1854 1456 1459 1460 1857 1858 1428 1463 
1861 1865 1432 1830 1471 1869 1826 1436 1475 
1873 1834 1440 1479 1838 1877 1483 1484 1881 
1885 1452 1487 1846 1889 1491 1850 1893 1496 
1495 1464 1499 1894 1901 1897 1899 1467 1468 
1866 1862 1472 1870 1511 1909 1476 1874 1913 
1515 1480 1519 1878 1918 1917 1488 1523 1882 
1925 1492 1527 1929 1886 1531 1535 1890 1933 
1930 1500 1504 1898 1937 1905 1507 1503 1508 
1902 1906 1512 1547 1949 1910 1912 1516 1555 
1914 1551 1953 1520 1559 1560 1957 1921 1528 
1563 1922 1965 1961 1532 1567 1571 1926 1969 
1536 1540 1934 1973 1975 1539 1941 1544 1938 
1945 1543 1548 1942 1985 1946 1552 1587 1989 
1950 1556 1591 1993 1954 1524 1595 1599 1958 
1997 1203 1568 1564 1962 1601 1572 1605 1966 
1970 1575 1576 1974 1977 1580 1579 1978 1584 
1981 1979 1583 1223 1588 1625 1982 1227 1592 
1629 1986 1231 1596 1994 1990 1239 1600 1998 
1637 1604 1643 2041 2002 2043 2004 1608 1612 
2045 2006 2008 2047 2049 1616 2014 1615 2010 
2016 2051 2017 1620 1619 2018 1659 2021 2020 
2019 1624 1628 1663 2061 2022 2024 2028 2027 
1632 1631 2030 2026 2029 2032 2031 1636 1635 
1675 2033 2034 2035 2075 1640 1679 2038 2077 
2040 2079 1648 1644 2042 2044 2083 2081 1647 
1651 1652 2050 2046 2048 2052 2087 1655 1656 
2053 2054 2055 2056 1699 2059 2057 2058 2060 
2064 1664 1668 2065 2062 2063 2068 1667 1671 
1672 2069 2066 2071 2067 2072 2070 1676 2073 
2074 2076 2111 2113 1715 1680 1719 2115 2078 
2117 2080 2119 1683 1684 2082 2085 2084 2118 
2159 1687 2089 1692 2086 1691 2088 2091 2092 
2090 1695 1696 2093 2094 2095 2096 1704 2097 
2101 2098 2099 2104 1708 2105 2102 2103 2108 
1707 1712 2109 2106 2107 2112 1711 1716 1751 
2110 2116 2153 1720 1755 2114 2155 2120 2157 
1688 1723 2125 1728 2123 2124 2121 2129 1727 
1732 2126 2127 2132 1731 2133 1736 2130 2131 
2100 2135 1735 2137 1739 1744 2138 2141 2139 
2140 1743 1748 2144 2145 2142 2143 2148 1747 
1752 2149 2146 2147 2152 1756 1791 2150 2151 
2156 2193 2191 1759 1760 2158 2154 2160 2195 
2122 2165 1763 1768 2162 2128 2163 2168 1767 
2169 1772 2166 2167 2171 1771 1775 2134 2173 
2136 2175 1740 1779 2177 2178 1780 2179 2180 
2181 1783 1784 1788 2184 2185 2183 2182 1787 
1792 2188 2189 2187 2186 2192 2227 2229 1795 
1796 2190 2196 2231 2194 1724 1799 2161 2199 
2197 2200 2205 1803 1808 1804 2202 2207 2203 
2204 1807 1811 2170 2172 2209 2211 1776 1815 
2213 2174 2176 2215 1819 1820 2218 2217 2219 
2220 1823 1824 2221 2222 2223 2224 1827 1828 
1831 1832 2225 2228 2226 1835 2232 2233 2235 
2230 2236 2201 1764 1800 2198 2237 1839 2164 
2239 1843 1844 2241 2208 2245 2243 2206 1812 
1847 1851 2210 2249 2212 2251 2247 1816 1855 
2214 2253 2254 2216 2255 1859 1860 2257 2258 
2259 2260 1863 1864 2261 2263 2264 2262 1871 
1867 2265 2269 2272 1836 2234 1875 2273 2271 
2275 1840 2238 2277 1879 2240 1848 1883 2285 
2242 2283 1852 1887 2246 2250 2289 2252 2287 
1856 1891 1896 2293 2291 2256 2296 2290 1895 
1900 2294 2295 2297 2299 2300 1868 1903 2301 
2298 2303 2305 2304 1872 2270 2309 1911 2266 
2311 2307 1876 2274 1915 2313 2276 2315 2278 
1880 1919 2317 2244 2280 2281 1888 1923 2325 
2282 2288 2323 1892 1927 2329 2286 2292 2327 
1931 1936 2333 2331 2336 2330 1935 1939 2335 
2337 2334 2340 1907 1904 1908 2339 2302 2308 
2341 2343 2306 1947 2349 2310 2312 2347 1916 
1955 1951 2314 2353 2316 2320 2351 1884 1920 
1959 2321 2318 2319 1928 1963 2365 2322 2328 
2363 2361 1932 1967 1972 2326 2332 2369 2367 
1971 2373 2370 2371 2376 1940 1944 2338 2377 
2375 2379 1943 2345 1948 2342 2385 2344 2348 
1952 2346 1987 2389 2352 2387 1956 1991 2350 
2354 2355 2356 1960 2357 1924 1999 2358 2324 
2399 1603 1964 2362 2001 2003 2364 1968 2005 
1607 2366 2368 2007 2372 1611 2009 1976 1980 
2012 2013 2015 2374 2011 2381 1984 2378 2380 
2384 1983 1623 1988 2382 2025 2383 2023 2388 
1627 1992 2386 2390 2392 2391 1995 1996 2393 
2394 2395 1639 2000 2398 2397 2037 2039 2402 
2441 2404 2443 2445 2406 2408 2447 2446 2449 
2451 2452 2453 2414 2418 2420 2423 2419 2422 
2425 2428 2427 2429 2430 2426 2432 2431 2036 
2434 2433 2436 2435 2477 2438 2440 2479 2481 
2442 2444 2483 2485 2448 2487 2489 2488 2454 
2450 2455 2456 2424 2461 2457 2459 2464 2465 
2462 2463 2468 2469 2466 2467 2472 2470 2471 
2473 2474 2475 2476 2515 2517 2478 2480 2519 
2521 2482 2484 2518 2559 2525 2523 2486 2492 
2491 2490 2493 2497 2460 2495 2458 2501 2498 
2499 2504 2502 2505 2503 2508 2509 2506 2507 
2512 2510 2513 2511 2516 2553 2551 2514 2555 
2520 2557 2522 2524 2558 2599 2526 2529 2527 
2531 2533 2494 2496 2535 2537 2538 2541 2500 
2539 2540 2544 2545 2542 2543 2548 2546 2549 
2547 2552 2589 2593 2550 2556 2591 2554 2597 
2595 2560 2565 2528 2561 2563 2567 2562 2569 
2530 2532 2571 2534 2573 2536 2575 2577 2578 
2579 2580 2581 2585 2582 2584 2583 2588 2629 
2587 2586 2592 2633 2590 2596 2631 2598 2594 
2635 2600 2566 2605 2568 2607 2570 2609 2572 
2611 2613 2614 2574 2576 2615 2617 2618 2619 
2620 2621 2623 2624 2622 2625 2626 2628 2627 
2667 2630 2632 2636 2669 2671 2637 2634 2601 
2564 2639 2602 2603 2645 2608 2643 2606 2610 
2649 2612 2647 2653 2654 2651 2616 2655 2656 
2658 2657 2659 2660 2661 2663 2664 2662 2267 
2268 2666 2665 2668 2707 2673 2670 2675 2672 
2279 2638 2677 2604 2640 2248 2685 2642 2648 
2683 2646 2689 2652 2687 2650 2693 2691 2696 
2695 2694 2697 2699 2700 2701 2698 2703 2704 
2702 2706 2705 2709 2711 2708 2713 2674 2676 
2680 2681 2641 2678 2679 2644 2682 2725 2688 
2723 2729 2686 2692 2727 2733 2690 2731 2736 
2730 2734 2735 2737 2740 2739 2738 2741 2743 
2744 2745 2749 2710 2712 2747 2714 2716 2717 
2715 2720 2284 2718 2359 2719 2721 2684 2759 
2722 2765 2728 2763 2761 2726 2769 2732 2767 
2772 2773 2771 2776 2770 2777 2774 2775 2780 
2785 2781 2742 2779 2748 2783 2750 2746 2752 
2751 2753 2754 2755 2756 2757 2360 2797 2724 
2758 2760 2799 2762 2401 2403 2764 2405 2766 
2768 2407 2409 2410 2413 2412 2416 2411 2417 
2778 2415 2784 2421 2786 2782 2788 2787 2789 
2790 2792 2791 2396 2794 2793 2795 2796 2400 
2437 2798 2439 2800 2841 2802 2804 2843 2846 
2845 2808 2847 2849 2853 2851 2816 3182 2821 
2814 2820 2819 2825 2822 2828 2823 2827 2826 
2830 2829 2832 2831 2834 2833 2836 2875 2835 
2877 2838 2840 2879 2881 2842 2844 2883 2885 
2848 2852 2887 2893 2850 2857 2856 2855 2861 
2824 2818 2859 2864 2862 2865 2863 2868 2866 
2869 2871 2867 2872 2870 2873 2876 2913 2917 
2874 2915 2878 2880 2919 2882 2918 2921 2884 
2888 2959 2889 2886 2891 2892 2890 2897 2854 
2860 2895 2898 2858 2901 2899 2904 2905 2902 
2903 2908 2909 2906 2907 2912 2953 2910 2911 
2916 2914 2957 2955 2920 2958 2923 2925 2924 
2926 2929 2927 2931 2894 2896 2933 2900 2935 
2941 2937 2938 2939 2944 2945 2942 2943 2948 
2949 2946 2947 2952 2989 2950 2993 2951 2956 
2991 2954 2997 2995 2960 2961 2922 2928 2965 
2963 2967 2930 2969 2932 2971 2934 2973 2936 
2975 2974 2977 2978 2940 2979 2980 2981 2985 
2982 2983 2984 3029 2988 2986 2987 2992 3033 
2990 2996 3031 2994 2999 2998 3000 2966 3005 
2968 3003 3007 2970 3009 2972 3011 3013 3014 
2976 3015 3017 3018 3019 3020 3021 3022 3023 
3024 3025 3026 3027 3028 3067 3069 3030 3032 
3035 3036 2962 2964 3037 3039 3034 3045 3002 
3008 3043 3006 3010 3049 3012 3051 3047 3053 
3054 3016 3055 3056 3057 3058 3059 3060 3062 
3061 3063 3064 3066 3065 3068 3072 3071 3073 
3075 3070 3001 3038 3004 3040 3085 3042 3048 
3083 3089 3046 3052 3087 3093 3090 3050 3091 
3096 3094 3098 3095 3097 3099 3100 3101 3102 
3103 3104 3105 3109 3107 3111 3106 3074 3076 
3077 3080 3041 3078 3081 3079 3044 3082 3125 
3088 3123 3086 3129 3092 3127 3132 3130 3133 
3131 3136 3134 3137 3135 3140 3138 3108 3139 
3141 3143 3110 3112 3145 3113 3147 3116 3117 
3114 3115 3120 3121 3118 3119 3084 3159 3122 
3128 3163 3161 3126 3169 3165 3167 3172 3173 
3170 3171 3176 3177 3174 3175 3179 3142 3144 
3181 3146 3148 3183 3149 3150 3152 3151 3153 
3154 3155 3156 3157 3160 3124 3158 3199 2801 
3162 2803 3164 2806 3166 2805 2809 3168 2807 
2810 2813 2812 2811 2815 2817 3178 3180 3184 
3186 3185 3188 3187 3189 3190 3192 3191 3193 
3194 3195 3196 3197 2837 3198 2839 3200 3241 
3202 3204 3243 3245 3249 3208 3212 3247 3210 
3214 3216 3215 3221 3217 3218 3220 3219 3225 
3224 3228 3227 3230 3226 3229 3232 3231 3234 
3233 3236 3235 3273 3275 3238 3277 3240 3279 
3242 3281 3248 3244 3246 3251 3252 3250 3254 
3255 3253 3256 3257 3261 3259 3260 3262 3222 
3265 3263 3268 3269 3266 3267 3272 3270 3274 
3313 3271 3276 3278 3317 3280 3319 3315 3318 
3285 3283 3282 3284 3287 3286 3289 3292 3291 
3290 3297 3293 3295 3296 3258 3301 3264 3299 
3304 3302 3305 3303 3308 3309 3306 3307 3312 
3353 3310 3311 3316 3314 3357 3355 3320 3288 
3325 3321 3323 3329 3326 3327 3332 3333 3294 
3300 3331 3335 3337 3298 3341 3339 3338 3344 
3345 3342 3343 3348 3349 3346 3347 3352 3393 
3350 3351 3356 3391 3354 3359 3358 3360 3328 
3322 3365 3363 3368 3330 3367 3371 3369 3334 
3373 3336 3375 3377 3378 3340 3379 3380 3382 
3381 3383 3384 3385 3389 3386 3429 3388 3387 
3392 3390 3395 3396 3394 3324 3397 3361 3399 
3366 3362 3405 3403 3407 3370 3409 3372 3411 
3374 3414 3413 3376 3415 3417 3418 3419 3420 
3421 3422 3423 3424 3425 3426 3427 3428 3432 
3433 3431 3430 3435 3400 3364 3398 3437 3401 
3439 3445 3406 3402 3408 3443 3404 3410 3449 
3412 3451 3447 3453 3454 3416 3455 3456 3457 
3458 3459 3460 3461 3462 3463 3464 3465 3469 
3467 3471 3434 3436 3475 3473 3438 3440 3477 
3479 3442 3485 3448 3483 3446 3489 3452 3487 
3450 3493 3490 3495 3491 3496 3494 3498 3497 
3499 3500 3501 3468 3503 3505 3466 3470 3472 
3509 3511 3513 3474 3476 3515 3441 3481 3478 
3444 3480 3525 3482 3488 3523 3486 3529 3492 
3527 3533 3530 3531 3536 3534 3537 3539 3535 
3507 3502 3541 3504 3508 3506 3549 3512 3547 
3510 3517 3514 3551 3516 3520 3518 3521 3484 
3519 3559 3522 3561 3528 3563 3565 3569 3526 
3532 3567 3572 3573 3570 3571 3575 3538 3540 
3577 3544 3545 3542 3543 3548 3585 3550 3546 
3552 3587 3557 3554 3553 3555 3556 3558 3524 
3560 3599 3201 3562 3203 3564 3206 3205 3566 
3568 3207 3209 3574 3213 3211 3576 3580 3581 
3579 3578 3584 3583 3586 3582 3223 3588 3590 
3589 3591 3592 3594 3593 3595 3596 3237 3598 
3597 3239 3600 3602 3641 3608 3604 10 3610 
3606 3611 3607 14 3613 3614 13 3616 3615 
21 18 3618 3617 3620 3619 3621 3622 3624 
3628 3663 3626 26 3630 3629 3632 3631 34 
3634 3633 3636 3635 3638 3677 3640 3679 6 
45 3645 3642 3643 3647 3612 3650 50 3649 
3652 3651 53 3654 3653 54 3655 3656 57 
3658 3657 3659 3660 101 62 3661 3662 3665 
3664 3668 69 66 3669 3666 3667 3672 3674 
3671 3673 3670 3675 70 3676 113 3678 3717 
3715 3644 3680 3646 3648 3681 3685 3683 3689 
3687 3692 3691 90 93 3694 3690 3693 3695 
3696 3699 3701 3697 3700 102 105 3705 3702 
3703 3708 3709 3706 3707 106 3712 114 3713 
3753 3710 3711 3716 117 3714 3718 3719 3720 
3682 3725 3688 3723 3728 129 126 3686 3726 
3729 3727 3732 3730 133 3733 3735 3731 3736 
134 141 3738 3704 3698 3737 3741 3739 3744 
3745 3742 145 3743 142 3748 3749 3746 149 
3747 146 3752 3750 3754 3751 3755 3756 3721 
3757 3684 3759 3765 165 3722 3763 3768 3769 
166 3766 3767 3772 3734 173 3773 3771 3775 
3777 3778 3740 177 3779 3785 3781 3782 181 
3783 182 3784 189 3789 3786 3788 3787 3791 
154 3793 3760 3790 3795 3797 3758 3724 3761 
3799 3762 3802 3805 162 205 3803 3808 3770 
3809 206 3807 3811 3813 3814 3774 3776 3815 
3818 3817 3780 3819 218 3820 225 3821 3822 
3823 3824 186 190 3825 3792 3829 3827 3794 
3796 3833 3835 3800 237 3764 3798 3801 3837 
3839 241 3806 3845 3841 3804 242 3843 3844 
3849 3810 3812 210 3851 3847 3853 3854 3816 
3855 261 3857 3858 257 3859 3860 226 222 
3861 3828 3865 3863 3826 3831 3830 3832 3871 
273 3834 3836 3873 3875 238 277 3877 3838 
3840 3879 3842 3885 3848 3883 3889 3846 3852 
3887 250 3850 3893 3890 3856 3891 3895 3896 
258 3897 3894 3899 3864 262 3901 3867 3862 
3868 3866 3907 3869 3870 3872 3909 3911 3874 
3913 274 313 3876 3915 3917 3878 3880 3919 
3925 3882 282 3888 325 3923 3929 3886 3892 
3927 3933 3930 3931 3935 298 3898 3937 3900 
3904 345 3905 3902 3903 3908 3945 349 310 
3949 3906 3912 3947 3910 353 3914 3953 3916 
3951 3955 3921 3881 3884 3918 3920 321 3922 
3961 365 3928 3963 361 3965 3926 3969 3932 
3967 3971 334 3934 3973 3936 3940 3938 3939 
3944 3941 385 3943 3985 3942 3948 3946 3989 
3952 3987 3957 3954 3950 3956 3991 3958 3959 
358 3924 3960 3999 3601 3962 3603 362 3964 
369 370 3605 3966 3968 3609 3972 373 377 
3970 3975 3976 3974 3977 3980 378 3978 3981 
3979 3984 3983 3625 3982 3623 3988 3990 29 
3986 3627 3992 394 3993 3994 3995 3996 3637 
3998 3997 3639 4000 
type 1 4000 int
1 1 1 1 1 1 1 1 1 
1 1 1 1 1 1 1 1 1 
1 1 1 1 1 1 1 1 1 
1 1 1 1 1 1 1 1 1 
1 1 1 1 1 1 1 1 1 
1 1 1 1 1 1 1 1 1 
1 1 1 1 1 1 1 1 1 
1 1 1 1 1 1 1 1 1 
1 1 1 1 1 1 1 1 1 
1 1 1 1 1 1 1 1 1 
1 1 1 1 1 1 1 1 1 
1 1 1 1 1 1 1 1 1 
1 1 1 1 1 1 1 1 1 
1 1 1 1 1 1 1 1 1 
1 1 1 1 1 1 1 1 1 
1 1 1 1 1 1 1 1 1 
1 1 1 1 1 1 1 1 1 
1 1 1 1 1 1 1 1 1 
1 1 1 1 1 1 1 1 1 
1 1 1 1 1 1 1 1 1 
1 1 1 1 1 1 1 1 1 
1 1 1 1 1 1 1 1 1 
1 1 1 1 1 1 1 1 1 
1 1 1 1 1 1 1 1 1 
1 1 1 1 1 1 1 1 1 
1 1 1 1 1 1 1 1 1 
1 1 1 1 1 1 1 1 1 
1 1 1 1 1 1 1 1 1 
1 1 1 1 1 1 1 1 1 
1 1 1 1 1 1 1 1 1 
1 1 1 1 1 1 1 1 1 