# vtk DataFile Version 4.0
Generated by LAMMPS
ASCII
DATASET POLYDATA
POINTS 4000 float
4.04757 -0.134983 3.66103 6.35192 -0.751339 1.83729 4.0547 -2.46803 1.75789 
4.34758 -0.428319 -0.0708918 5.91541 -2.94067 -0.136993 8.43938 1.10844 1.7829 
10.2581 -1.33065 1.68533 10.4708 0.699422 -0.314286 8.17927 -1.19764 -0.134077 
8.32935 -0.895515 3.79805 10.4369 0.744638 3.61196 12.6974 0.215982 1.69976 
14.3669 -1.96262 1.58384 12.3181 -1.71821 3.80585 14.4973 -0.068478 40.9498 
16.5258 -0.332154 1.66516 18.1891 -2.65772 1.56879 18.6391 -0.707561 3.53187 
20.1992 -3.03722 -0.40675 16.2171 -2.36484 40.9844 18.3871 -0.764035 40.7893 
20.5325 -0.938498 1.51953 24.5972 -1.62612 1.56965 22.7382 0.917528 1.63036 
20.7356 1.0648 40.8311 20.3657 -3.0365 3.74259 22.5959 -1.26733 -0.312552 
28.6581 -2.17985 1.87341 26.9294 0.109543 1.59636 28.7025 -0.063075 3.63644 
26.5951 -1.95854 3.6575 24.889 0.438742 3.56832 24.8645 0.377268 -0.275286 
30.631 -0.315489 1.58262 32.4602 -2.80439 1.71338 32.6095 -0.474767 3.60028 
30.7337 -2.44269 3.97232 32.4858 -0.80227 40.7055 37.0773 0.0192362 1.59022 
34.5369 -0.983503 1.33718 36.8223 -1.92737 3.69984 34.3144 -3.19147 40.7272 
6.66515 1.34863 -0.10784 4.79574 1.6475 1.82487 37.637 3.88052 1.80677 
4.91232 3.68952 -0.0305146 6.85263 3.41048 1.84944 6.5155 1.39118 3.96694 
6.87313 5.50665 3.83364 8.91916 4.86806 1.67577 10.884 2.64762 1.7941 
8.93999 3.11649 3.79782 14.8291 1.91259 1.58206 13.1507 4.17418 1.79297 
12.874 2.29112 3.79198 12.9138 2.18558 40.9511 18.7399 1.24791 1.42704 
17.0359 3.53686 1.68186 16.7127 1.45063 40.7937 18.8409 3.44589 -0.374343 
19.2597 5.32019 1.77044 19.0024 3.17437 3.55683 20.8926 3.14411 1.55592 
23.2122 4.75462 1.79256 21.1762 5.32082 -0.238644 23.0144 2.81351 -0.367543 
25.0781 2.56311 1.58874 27.2156 4.2884 1.65296 26.8646 2.29401 -0.385843 
33.0311 1.14786 1.34928 30.8077 1.80662 3.70198 28.9299 1.91095 1.67257 
31.1405 3.35399 1.36039 30.7239 1.55749 40.6086 35.4706 2.20583 1.63689 
33.4816 4.59506 1.50966 5.06096 5.63484 1.77203 3.15864 6.07523 -0.279328 
3.43213 7.9361 1.79605 5.34844 7.75653 3.79527 5.32063 7.73231 40.7977 
7.27154 7.32953 1.6523 11.0485 6.56957 1.80904 9.41009 8.97179 1.51373 
7.58813 9.32269 40.718 9.17096 6.98743 3.71169 9.33628 6.9107 40.864 
15.4186 5.8244 1.50924 13.4205 8.33297 1.77627 13.2135 6.14249 -0.340172 
13.2955 6.45585 3.67709 15.4545 8.07885 -0.353543 17.4742 7.83858 1.60087 
19.6999 9.61325 1.57252 17.3685 5.76218 3.70641 17.2997 5.63045 40.7307 
19.1698 7.48032 40.8383 21.1794 7.15964 1.5694 23.7966 9.03479 1.75096 
23.5264 6.88317 3.63236 21.6822 9.33571 -0.367729 23.3535 6.98301 -0.034174 
25.4532 6.67059 1.77508 27.4577 6.65543 3.80505 27.7483 8.23008 1.51316 
25.6294 8.65115 4.03209 32.125 7.07701 1.83847 29.4454 5.77862 1.56655 
30.3661 9.14098 2.01371 32.3021 8.93433 -0.16861 32.2839 8.88966 3.84468 
36.0552 6.26533 1.76002 36.1132 8.30397 -0.182495 34.3527 8.69014 1.99345 
33.903 6.55335 -0.0975588 34.1123 6.6342 3.79045 36.1933 8.45321 4.04416 
5.58518 9.56884 1.502 3.88391 11.9962 1.60132 6.01054 13.6808 1.40039 
3.61355 9.88288 3.81968 5.77359 11.7868 3.7206 3.56146 9.79539 40.8144 
9.71506 10.8009 -0.306888 7.60157 11.2613 1.56957 10.0208 12.9652 1.65813 
8.00699 13.1746 3.60878 7.96048 13.1835 -0.362594 11.7107 10.6487 1.61059 
13.8449 12.4577 1.66266 13.8264 10.512 3.61086 11.9033 12.7191 -0.328448 
15.7291 9.93542 1.69175 17.8743 11.8255 1.73433 20.0539 11.4577 3.67322 
18.2256 13.84 3.65729 20.2813 13.4641 1.7114 16.036 12.2963 3.67931 
17.601 9.83719 -0.376505 15.7932 12.0686 -0.332568 19.8807 11.5423 -0.381945 
21.7575 11.3121 1.65104 24.1266 10.8384 3.83902 24.1285 12.6469 1.82863 
22.1405 13.2149 3.83058 26.0868 10.5162 1.56997 28.4256 11.4534 1.79656 
26.695 13.7844 1.879 28.6283 13.4631 -0.150475 26.4907 12.3381 3.91173 
32.3827 10.9691 1.95949 30.4581 11.1473 -0.163904 30.576 13.1427 1.87297 
32.745 13.0161 -0.333493 30.3896 11.3093 3.90527 32.6434 12.7901 3.86755 
36.4873 10.3633 1.84341 34.7844 12.4677 1.74906 36.7267 12.0861 -0.418313 
34.7162 10.644 3.92491 34.4296 10.5386 -0.212278 3.96048 14.05 40.7391 
4.1873 13.9181 3.68347 4.31346 15.9072 1.69063 6.41374 17.6152 1.83938 
6.47223 15.4878 3.68459 8.20402 15.2914 1.65073 10.4145 17.0827 1.55933 
10.2501 14.9224 3.82855 8.54201 17.3242 3.85189 11.981 14.9085 1.71369 
14.3635 16.4308 1.82851 14.0707 14.404 3.70576 12.3425 16.935 3.73664 
16.0182 14.2292 1.83835 18.3409 15.7697 1.47898 22.4709 15.1184 1.73941 
20.9573 17.492 1.53572 26.7841 15.785 -0.195919 24.8813 16.3954 1.95768 
27.2166 18.0895 2.06363 25.1905 18.1912 -0.214648 27.0026 15.9412 3.85718 
28.9969 15.5492 1.79585 30.8437 15.0679 -0.111742 33.0174 14.8826 1.88889 
31.1646 17.3043 1.88387 33.1424 16.7995 -0.108213 36.9426 14.0618 1.73511 
34.9317 14.6254 -0.233329 35.215 16.6859 1.66178 37.3187 16.3434 3.49938 
4.77002 20.0661 1.83293 3.31112 22.4022 1.56697 2.95208 20.2536 40.9312 
6.65462 19.8009 3.74256 37.5901 18.2823 1.60638 5.04733 22.1374 3.71742 
6.8238 21.7028 1.68275 8.56451 19.332 1.82683 10.8366 21.2524 1.68568 
10.5881 19.1846 3.75548 8.98151 21.4441 3.63971 12.4456 18.9522 1.68577 
14.8537 20.5038 1.86443 14.7289 18.506 3.6995 12.732 20.8038 -0.210567 
16.5164 18.3048 1.66914 18.7085 17.7699 3.5559 19.0422 19.9663 1.61038 
19.5153 21.7312 3.89035 23.2904 18.6071 1.80302 21.0059 19.4732 3.80444 
23.4307 20.5498 -0.235213 21.4165 21.0845 1.79009 23.4886 20.7451 3.88191 
25.4781 20.2431 1.81533 27.3744 19.9504 -0.227034 27.6335 21.9807 1.62161 
25.7675 22.1835 40.8801 25.6817 22.4572 3.93127 29.5038 19.5832 1.88644 
31.3597 19.2772 -0.353077 31.7697 21.2902 1.69403 29.6645 21.6742 -0.269446 
33.3052 18.9494 1.72401 35.4179 18.6594 40.6686 35.8237 20.4499 1.48895 
33.7811 20.8924 40.8113 5.4166 24.1667 1.63499 3.55616 24.4672 40.7045 
3.55959 26.5293 1.4925 5.53574 26.1427 3.74333 3.35381 24.4785 3.64778 
9.16256 23.4624 1.79071 7.66568 25.9801 1.72448 7.30063 23.8683 3.77146 
11.2811 23.2602 3.59253 11.3261 25.2017 1.3205 13.1344 22.9909 1.64166 
15.5263 24.5541 1.41701 17.1639 22.3094 1.60635 17.8746 26.0017 1.74003 
19.8114 23.3843 1.80748 20.1213 25.3806 -0.0173783 23.7309 22.6209 1.80754 
22.2199 24.8133 1.80879 24.174 24.648 -0.31546 21.587 22.8435 -0.254754 
24.5591 26.5789 1.66614 26.0956 24.4524 1.70008 27.8252 23.8339 -0.371769 
28.4489 26.0901 1.69768 26.5213 26.2371 40.8534 29.9236 23.4932 1.70235 
32.0673 23.5475 40.925 32.377 25.2033 1.76797 30.2902 25.6426 -0.359123 
34.1258 22.8465 1.60615 36.1526 22.6349 40.8331 34.5367 24.8789 -0.40278 
36.4041 24.5378 1.53553 5.72143 28.1811 1.58859 3.99287 30.4638 1.76989 
3.84473 28.5394 3.67277 5.98221 30.4181 3.6518 9.77713 27.5896 1.62364 
8.01811 29.9686 1.67051 9.90459 29.9275 3.82961 7.72626 28.0286 3.77195 
13.4737 27.0142 1.28982 11.8649 29.4353 1.43175 14.554 30.2992 1.74911 
11.882 27.4391 3.49686 16.17 27.928 1.5554 16.688 29.8209 -0.234514 
18.7202 29.743 1.93994 18.507 27.6288 -0.199229 20.5603 27.2196 1.66625 
16.6115 30.1512 3.88899 22.635 29.0168 1.85058 24.7388 28.3003 40.8727 
23.2794 30.8804 3.74645 26.7297 28.2434 1.69523 28.6646 28.018 -0.209454 
24.9024 30.6944 1.63312 26.8062 30.1441 -0.255894 28.8203 30.0097 1.57278 
24.7805 28.4289 3.73148 28.6373 28.0671 3.77867 30.7576 27.5971 1.71418 
32.8053 29.5596 1.64461 32.6991 27.2997 3.65339 36.6449 26.7006 40.7923 
34.6784 27.0611 1.54175 36.7601 28.7048 1.67367 36.7211 26.7098 3.66179 
34.9288 28.9457 -0.307792 37.2413 30.6449 40.7546 6.37404 32.2637 1.56875 
4.48331 34.5484 1.48054 4.18492 32.7526 3.418 10.3441 31.6749 1.45204 
8.52553 34.0504 1.2899 8.36164 32.1203 3.49261 11.0158 35.107 1.65298 
10.8765 33.1079 3.7013 13.0753 32.6315 1.6957 15.0422 32.2143 -0.168053 
15.3394 34.4048 1.94448 12.9802 34.5751 -0.323571 13.0932 34.5854 3.69912 
17.0454 31.9575 2.03211 19.1469 33.6718 1.95603 17.2969 34.0982 4.0596 
18.8789 31.6616 4.03388 22.8182 30.9036 -0.334656 20.6963 31.4585 1.8198 
23.035 33.0665 1.68726 21.0342 33.4006 -0.349444 21.2824 33.4777 3.78848 
23.3577 35.1206 3.55882 27.2965 32.1416 1.57015 25.1988 32.6004 -0.268055 
25.3803 34.7716 1.59302 27.4658 34.4189 40.8644 29.2157 32.1521 -0.441304 
29.5247 34.1257 1.54054 31.3088 31.9189 1.52301 31.4767 33.6805 40.5691 
33.1447 31.5161 40.8585 29.1459 32.0735 3.45284 31.1818 33.7772 3.64696 
33.4042 33.5815 1.55683 35.0065 31.2293 1.72812 37.1497 32.8211 1.48516 
35.1354 33.1539 3.68721 6.83489 36.3586 1.41049 5.0686 38.5261 1.6775 
4.66607 36.8997 3.67963 9.39575 37.2349 1.71427 9.5884 39.4271 3.72572 
9.47821 39.2429 -0.259934 11.3405 37.0254 -0.165693 9.07146 35.5577 3.73839 
11.4122 39.0525 1.71239 13.4084 36.6665 1.75971 15.5453 38.424 1.69923 
13.4977 38.863 -0.101306 13.5183 38.6865 3.95212 15.3718 36.6253 3.78656 
17.3433 36.2653 1.63815 19.5164 37.8896 1.71277 17.6413 38.2393 3.79888 
19.3103 35.916 3.80062 17.5645 38.0106 -0.258426 19.2988 35.6532 -0.180007 
21.4031 35.7649 1.81013 23.5837 37.2199 1.5601 21.9564 39.4584 1.50349 
21.6824 37.4034 -0.38154 23.8746 39.109 40.7368 27.5519 36.54 1.56967 
27.7362 38.608 -0.384669 25.7893 38.9505 1.68675 25.5497 36.7511 40.8432 
25.5714 36.8655 3.405 27.8171 38.5493 3.64898 31.4654 35.9956 1.51566 
29.7986 38.2205 1.60805 29.5716 36.1375 -0.36296 29.4347 36.1884 3.72503 
31.8728 38.032 3.62506 37.7003 36.9473 1.55085 33.756 37.5488 1.69521 
35.4826 35.1691 1.50274 33.4175 35.528 3.61394 35.6881 37.2704 3.73465 
5.70007 41.9161 1.91388 3.22039 41.0168 1.42154 3.92913 42.6788 3.8241 
7.67329 39.7036 1.72222 9.69971 41.4 1.8626 8.05768 -2.98618 1.76203 
7.88097 41.8735 3.93546 7.5689 41.5651 -0.251798 10.0748 43.3734 -0.246983 
9.9396 43.5128 3.7942 13.8382 40.7691 1.76494 12.0159 43.1134 1.90491 
14.1281 42.7216 3.76255 13.971 42.7336 -0.15238 11.5563 41.0806 -0.16887 
15.7178 40.4731 3.80057 17.7285 40.1364 1.70767 16.1073 42.492 1.69284 
20.0024 41.7587 1.63388 18.0505 42.2373 3.7328 18.0294 42.0364 40.9189 
19.6596 39.6466 40.9083 19.6916 39.9809 3.88434 22.0913 43.5199 1.628 
[...]
POINT_DATA 4000
FIELD FieldData 6
id 1 4000 int
405 7 3 2 5 12 11 10 9 
409 410 16 15 413 14 20 19 418 
21 17 18 24 28 63 61 421 22 
32 67 469 426 465 65 36 35 434 
430 34 4 40 401 37 6 8 43 
45 47 406 446 52 51 449 55 56 
453 53 59 60 57 58 99 458 64 
103 101 62 68 72 69 75 473 71 
76 73 79 80 48 42 83 485 85 
87 91 92 86 489 89 95 96 93 
493 94 100 139 497 97 98 104 108 
502 102 105 107 509 112 506 115 111 
116 114 517 44 81 119 117 478 481 
88 123 128 482 525 82 129 127 132 
526 126 131 136 533 130 135 140 538 
577 144 534 137 134 141 143 545 148 
542 147 151 152 150 549 120 153 155 
157 514 557 84 159 121 518 118 122 
522 163 168 565 167 172 569 566 171 
176 573 570 175 179 183 184 189 187 
191 186 550 156 154 160 195 197 124 
158 199 561 203 204 201 605 164 602 
208 207 212 609 606 211 215 613 213 
180 578 219 621 188 582 225 223 586 
192 190 231 229 629 196 194 235 233 
200 198 239 237 243 241 244 642 641 
247 248 645 649 251 216 255 220 259 
224 261 227 228 226 222 267 232 230 
271 269 236 234 275 273 240 238 277 
279 283 284 681 682 252 287 689 685 
256 291 295 650 260 297 264 258 263 
658 268 266 705 272 270 307 309 311 
666 670 276 315 674 278 280 319 678 
317 318 288 323 721 292 327 686 331 
690 296 294 300 333 694 299 304 698 
701 305 303 308 302 702 745 312 306 
347 349 310 351 316 353 314 710 753 
355 320 359 757 328 363 722 332 730 
369 330 729 336 335 340 334 734 737 
339 344 738 741 338 341 343 348 383 
342 385 352 389 387 346 746 789 356 
391 350 750 793 324 395 360 754 797 
368 364 762 367 371 372 769 366 370 
770 375 376 774 374 373 777 379 380 
384 778 378 381 781 23 388 382 782 
425 27 392 386 429 786 31 396 790 
433 394 399 794 39 400 766 407 768 
805 1166 412 411 810 809 414 416 415 
814 813 417 420 419 817 821 461 422 
424 463 822 428 432 467 869 865 826 
471 436 830 437 403 440 438 439 445 
402 806 408 443 447 845 846 450 451 
849 452 454 455 456 853 854 457 459 
460 499 857 462 501 464 503 861 505 
466 468 507 905 866 470 474 472 475 
476 477 441 404 479 841 448 442 483 
488 885 842 486 487 492 886 491 495 
490 890 494 496 894 498 897 500 898 
539 541 941 504 543 510 508 512 511 
513 480 515 444 519 878 882 523 925 
528 529 527 532 926 929 535 530 531 
536 933 930 537 937 540 579 544 548 
516 547 551 953 553 520 555 957 484 
918 521 559 921 922 562 563 965 568 
962 567 572 969 966 571 576 973 970 
575 574 580 581 585 583 584 546 552 
589 591 950 989 593 554 556 560 595 
954 993 597 558 524 599 958 603 601 
1005 1002 1001 608 607 612 1006 1009 610 
611 1010 616 1013 617 615 619 620 588 
587 986 592 590 631 990 1029 594 596 
633 635 994 1033 598 564 600 637 639 
604 643 644 1041 1042 646 647 648 1045 
1049 614 653 652 651 655 618 623 657 
624 1022 622 627 625 628 626 1025 667 
1026 630 632 1030 669 671 1069 634 636 
675 673 1034 1073 638 640 677 679 1038 
1077 683 684 1081 1082 687 688 1085 691 
654 693 656 660 661 659 664 1061 1058 
665 1065 662 663 668 1062 1066 672 707 
1109 709 1070 676 715 711 713 1113 1074 
680 717 719 1078 718 725 723 724 1121 
692 727 696 697 695 700 1097 1094 699 
704 1098 1101 703 708 1102 1145 1105 706 
712 1106 749 747 1149 1110 716 751 714 
1153 1114 759 755 720 1157 1118 1158 761 
728 799 763 726 733 731 1130 1133 735 
736 1137 740 1134 739 744 1141 1138 742 
785 743 748 1142 1185 752 1146 787 1189 
756 791 1150 1193 1154 758 795 760 765 
767 764 732 772 1170 1169 771 773 775 
776 1174 1173 1177 779 780 1178 784 1181 
783 423 788 1182 825 427 792 829 1186 
431 796 1190 833 798 800 435 1194 803 
807 1206 812 811 1210 1209 816 815 1213 
1214 818 820 819 1218 1217 1221 824 828 
863 1222 1261 832 867 1265 1226 871 836 
873 1230 801 834 840 1237 808 843 847 
1246 1245 850 851 852 1249 1250 855 856 
1254 858 859 860 1257 901 862 864 903 
1262 909 868 872 907 1266 877 875 870 
876 804 838 802 879 848 1242 883 888 
1285 889 887 891 892 1289 1286 893 1290 
1293 895 896 1294 899 1297 900 939 902 
904 943 906 945 908 912 917 880 913 
911 874 915 881 844 919 1281 923 928 
1325 1322 1282 927 932 1326 1329 935 931 
1330 936 1333 934 977 938 940 979 1337 
1334 1377 942 944 948 981 947 910 949 
951 914 916 920 955 1357 884 1318 959 
1321 963 1365 968 1362 1369 967 972 1366 
971 976 1370 1373 974 975 980 1017 1015 
978 946 983 985 987 984 952 991 956 
960 1354 995 1393 997 924 961 1361 999 
1358 1003 1401 1405 1402 1008 1007 1012 1406 
1409 1011 1016 1410 1019 1014 1021 1020 1417 
982 988 1023 1027 992 1390 1429 1031 996 
1035 1394 1433 998 1037 964 1000 1039 1398 
1437 1004 1043 1044 1441 1442 1046 1047 1048 
1445 1449 1446 1052 1053 1055 1051 1050 1057 
1018 1024 1059 1028 1426 1067 1465 1032 1071 
1430 1469 1036 1075 1473 1434 1040 1079 1438 
1477 1083 1084 1481 1086 1087 1088 1485 1489 
1089 1054 1056 1091 1450 1060 1064 1063 1068 
1462 1505 1466 1072 1470 1107 1509 1111 1076 
1115 1513 1474 1080 1117 1119 1517 1122 1123 
1124 1125 1092 1127 1090 1093 1095 1096 1100 
1099 1498 1501 1104 1103 1108 1502 1545 1506 
1112 1147 1549 1510 1151 1116 1553 1155 1514 
1120 1159 1160 1557 1161 1128 1163 1126 1198 
1129 1131 1132 1136 1135 1534 1140 1537 1533 
1139 1144 1538 1541 1143 1148 1542 1585 1152 
1589 1187 1546 1550 1156 1191 1593 1197 1195 
1199 1200 1162 1165 1168 1164 1167 1171 1172 
1570 1573 1175 1176 1574 1180 1179 1184 1581 
1578 1183 823 1188 1225 1582 827 1192 1586 
1229 831 1196 1233 1590 839 835 837 1202 
1205 1208 1204 1212 1610 1207 1211 1216 1215 
1614 1613 1220 1219 1618 1617 1224 1228 1263 
1665 1269 1267 1232 1630 1234 1236 1235 1634 
1238 1240 1279 1277 1247 1243 1646 1649 1251 
1252 1650 1253 1653 1255 1256 1258 1259 1260 
1658 1299 1657 1301 1264 1303 1701 1305 1271 
1268 1272 1270 1669 1274 1273 1275 1276 1315 
1241 1244 1280 1278 1248 1283 1685 1291 1287 
1689 1292 1686 1690 1295 1296 1694 1298 1697 
1300 1339 1302 1341 1304 1308 1309 1307 1306 
1312 1311 1313 1310 1316 1317 1319 1320 1288 
1682 1323 1328 1725 1729 1327 1332 1726 1335 
1331 1730 1336 1733 1734 1338 1340 1344 1345 
1343 1342 1348 1347 1349 1346 1352 1314 1351 
1355 1353 1284 1721 1359 1363 1368 1762 1722 
1765 1367 1769 1372 1766 1371 1376 1773 1770 
1374 1375 1379 1378 1778 1381 1384 1383 1385 
1382 1388 1350 1387 1391 1389 1356 1360 1395 
1797 1397 1324 1758 1399 1761 1403 1805 1404 
1802 1408 1407 1412 1806 1809 1413 1411 1415 
1414 1813 1380 1419 1418 1420 1421 1423 1425 
1424 1386 1392 1427 1431 1396 1794 1435 1833 
1364 1801 1400 1798 1439 1837 1443 1444 1842 
1451 1447 1448 1845 1810 1849 1453 1416 1455 
1853 1854 1457 1459 1461 1454 1460 1857 1422 
1428 1463 1467 1432 1830 1471 1869 1436 1475 
1873 1834 1440 1479 1838 1877 1482 1483 1484 
1881 1885 1452 1487 1846 1493 1491 1456 1850 
1893 1495 1458 1464 1499 1497 1894 1468 1905 
1901 1866 1472 1870 1507 1511 1909 1476 1874 
1913 1515 1478 1480 1519 1878 1518 1918 1521 
1488 1525 1523 1486 1492 1529 1527 1494 1490 
1496 1531 1535 1500 1504 1503 1508 1902 1945 
1906 1512 1547 1949 1910 1516 1555 1914 1551 
1953 1520 1559 1558 1560 1957 1565 1522 1528 
1563 1530 1526 1532 1567 1536 1540 1539 1941 
1544 1938 1543 1548 1942 1985 1583 1946 1552 
1587 1989 1950 1556 1591 1561 1554 1597 1524 
1595 1599 1958 1201 1203 1562 1568 1564 1566 
1569 1571 1572 1970 1577 1575 1576 1974 1977 
1580 1579 1978 1584 1981 1621 1223 1588 1625 
1227 1592 1629 1231 1596 1994 1239 1594 1598 
1600 1998 1641 1602 1604 1643 1606 1609 1608 
1612 2045 2006 1616 2014 1615 2010 2017 1620 
1619 2018 1659 1661 1622 1624 1628 1663 1626 
1632 1631 2030 1636 1633 1635 1677 1638 1640 
1679 1637 1642 1645 1648 1644 1647 1651 1652 
2050 1654 1655 1656 2053 2054 1660 1699 1662 
1664 1668 1667 1666 1671 1672 1670 2070 2069 
1673 1675 1674 1676 1715 2073 1717 1678 1680 
1719 1683 1688 1687 2089 1692 2086 1691 2090 
1693 1695 1696 2093 1698 1700 1704 1737 2097 
1705 1702 1703 1708 1709 1707 1706 1712 2109 
1713 1711 1710 1716 1753 1714 1681 1684 1720 
1755 1718 1723 2125 1728 2122 2129 1727 1732 
2126 1735 1731 2133 1736 2130 2137 1741 1739 
1744 1738 2138 1745 1743 1742 1748 1749 1747 
1746 1752 1751 1750 1756 1754 1759 1757 1760 
2165 1763 1768 2162 1767 2169 1772 2166 1771 
1775 2134 2173 1740 1779 1777 2181 2177 2178 
1781 1783 1785 1782 1784 1788 1789 1787 1786 
1792 1791 1793 1795 1796 1724 1799 2161 2205 
1803 1808 1804 2202 2201 1807 1811 2170 1776 
1774 1815 2213 2174 1817 1780 1819 1818 1820 
2218 2217 1821 1823 1822 1824 1825 1790 1827 
1828 1829 1831 1835 1764 1800 2198 2237 1839 
1841 1843 1844 2241 2206 1812 1847 1851 2210 
2249 1814 1816 1855 2214 2253 1858 1859 1860 
2257 1861 1863 1865 1864 2261 1826 1832 1871 
1867 1836 2234 1875 2273 1840 2238 2277 1879 
2278 1848 1883 2285 1852 1889 1887 2246 2250 
1856 1891 1895 1896 1897 1899 1900 1862 1868 
1903 2301 1872 2270 1907 2309 1911 2266 1876 
2274 1915 2313 1917 1880 1919 2317 1882 1888 
1923 1925 2325 1929 1886 1892 1927 2329 2286 
1890 1931 1933 1936 1898 1935 1937 1939 1904 
1908 1943 2345 1912 2306 1947 2349 2310 1916 
1955 1951 2314 2353 1884 1920 1921 1959 2321 
1922 1928 1963 1965 1926 1932 1969 1967 1934 
1930 1971 1973 1975 2373 2370 1940 1944 2381 
1948 2342 1983 1952 2346 1987 1993 1954 1956 
1991 1960 2350 2357 1961 1924 1999 2358 1962 
1605 1603 1968 1964 1601 2362 2005 1611 1966 
1607 1972 2366 2009 1976 1980 1979 1984 2378 
2021 1982 1623 1988 2382 2025 1986 1627 1992 
1990 1995 1996 1639 1997 2000 2398 2397 2041 
2002 2043 2004 2008 2047 2445 2406 2016 2051 
2449 2020 2059 2061 2022 2024 2028 2027 2422 
2026 2029 2032 2031 2429 2430 2033 2034 2036 
2035 2038 2077 2040 2079 2042 2044 2083 2081 
2049 2046 2048 2052 2485 2055 2056 2454 2057 
2058 2060 2064 2065 2062 2063 2068 2066 2071 
2067 2072 2075 2074 2076 2115 2078 2117 2080 
2119 2082 2085 2088 2521 2084 2525 2091 2087 
2092 2094 2095 2096 2101 2098 2458 2099 2104 
2105 2102 2103 2108 2106 2107 2111 2112 2114 
2113 2110 2116 2153 2155 2118 2120 2157 2159 
2123 2128 2124 2121 2522 2127 2131 2132 2526 
2100 2135 2537 2141 2139 2144 2538 2541 2145 
2142 2143 2148 2149 2146 2147 2152 2150 2151 
2156 2193 2191 2158 2154 2160 2554 2597 2195 
2163 2168 2565 2167 2171 2569 2136 2175 2140 
2179 2577 2578 2184 2185 2183 2182 2188 2189 
2187 2186 2192 2190 2196 2231 2194 2633 2199 
2197 2200 2598 2207 2203 2566 2605 2172 2209 
2211 2570 2609 2176 2215 2613 2180 2219 2617 
2221 2222 2223 2224 2225 2228 2227 2229 2226 
2232 2233 2235 2230 2236 2630 2204 2164 2239 
2637 2208 2245 2243 2602 2606 2212 2610 2251 
2247 2254 2216 2255 2614 2653 2654 2258 2220 
2259 2260 2263 2264 2262 2661 2265 2267 2268 
2269 2272 2666 2271 2275 2673 2670 2240 2279 
2638 2677 2242 2248 2283 2685 2289 2252 2287 
2646 2650 2689 2293 2291 2256 2693 2296 2294 
2295 2297 2299 2298 2300 2303 2305 2304 2701 
2311 2307 2706 2276 2713 2315 2674 2244 2280 
2281 2681 2282 2288 2323 2682 2292 2327 2729 
2290 2333 2331 2336 2330 2733 2335 2337 2334 
2340 2734 2339 2302 2308 2341 2343 2745 2312 
2347 2316 2320 2351 2714 2318 2284 2319 2718 
2365 2322 2328 2363 2361 2326 2332 2369 2367 
2726 2769 2371 2773 2376 2338 2377 2375 2379 
2777 2774 2385 2344 2348 2785 2383 2781 2742 
2389 2352 2387 2750 2354 2355 2356 2753 2754 
2757 2324 2359 2360 2399 2001 2003 2368 2364 
2012 2007 2372 2409 2405 2766 2013 2015 2374 
2011 2410 2413 2019 2380 2384 2417 2023 2388 
2786 2386 2390 2392 2391 2789 2393 2394 2395 
2396 2794 2037 2797 2039 2400 2437 2402 2441 
2404 2443 2841 2802 2408 2447 2806 2849 2414 
2451 2452 2453 2418 2420 2424 2423 2419 3182 
2425 2426 2428 2825 2427 2432 2431 2434 2433 
2436 2435 2477 2438 2440 2479 2481 2442 2444 
2881 2483 2446 2448 2885 2487 2846 2489 2450 
2455 2456 2461 2457 2459 2464 2465 2462 2463 
2468 2469 2470 2466 2467 2471 2472 2473 2474 
2475 2476 2515 2517 2478 2480 2519 2917 2482 
2523 2484 2882 2490 2486 2488 2492 2491 2493 
2497 2460 2495 2501 2498 2499 2504 2502 2505 
2503 2508 2509 2506 2507 2512 2510 2513 2514 
2511 2516 2914 2553 2953 2555 2518 2520 2918 
2557 2559 2528 2524 2558 2599 2958 2529 2527 
2531 2533 2494 2496 2500 2535 2894 2539 2941 
2544 2898 2545 2542 2543 2548 2546 2549 2547 
2552 2593 2550 2551 2556 2950 2993 2595 2560 
2954 2997 2561 2563 2567 2961 2530 2532 2571 
2930 2534 2573 2536 2575 2581 2540 2977 2579 
2981 2580 2978 2585 2582 2584 2583 2985 2588 
2629 2589 2587 2586 2592 2590 2591 2596 3033 
2990 2631 2594 2994 2635 2600 2562 2568 2603 
2607 2966 2572 2611 2970 3009 2574 2576 2615 
3013 2618 2619 3017 2620 2621 2623 2624 2622 
3021 3022 2625 2626 3025 2628 2627 3029 2632 
3026 2634 2636 2669 3069 2671 3030 2601 2564 
2639 2645 2608 2643 3006 3045 3002 2649 2612 
2651 2647 3010 2616 3014 3053 2655 3054 2658 
2657 2659 2660 3057 3058 2663 2664 2662 3062 
2667 2665 2668 3066 3065 2675 2672 2604 2640 
2642 2648 2683 3085 2652 2687 3089 3046 2656 
2691 2695 2696 3093 2694 2697 2699 2698 2700 
3094 3098 2703 2704 2702 3101 3102 2705 2709 
2707 2711 2708 2676 2680 2641 2678 2679 2644 
2725 2688 2723 3082 2686 2692 2727 3086 2690 
2731 3090 2736 2735 2737 3134 2740 3137 2739 
2738 2741 2743 2744 3138 2749 2710 2712 2747 
2716 2717 2715 2720 3117 2719 2721 2684 3121 
2722 2765 2728 2763 3122 2732 2767 3126 3169 
2730 2771 3173 2776 3130 2770 3170 2775 3177 
2780 3174 2779 2748 2783 2746 2752 2751 2755 
2756 2759 2761 2724 2758 2760 2799 2762 2401 
2403 2764 2768 2407 2772 3166 2805 2809 2412 
2810 2416 2411 2813 2778 2415 2784 2421 2782 
2788 2787 3186 2790 2792 2791 3189 3190 2793 
2795 2796 3193 2798 2439 2800 2804 2843 3241 
3202 2845 2808 3245 2812 3206 2847 2853 2851 
2816 2821 2814 2820 2819 2822 2826 2828 2823 
2827 2830 2829 2832 2831 3230 2834 2833 2836 
2875 2835 3234 2877 2838 2840 2879 3238 2842 
2844 2883 3242 3281 2848 2852 2887 2893 2850 
2857 2856 2855 2861 2824 2818 2859 2866 2862 
2865 2863 2868 3262 2869 2870 2871 2867 2872 
3270 2873 2874 2876 3274 2915 2878 2880 2919 
3278 3317 2921 2884 2923 2888 2889 2886 2891 
2892 2890 2897 2854 2860 2895 3297 2858 2901 
3258 2864 2899 2904 2905 2902 2903 3302 2908 
2909 2906 2907 2912 2910 2913 2911 3313 2916 
2957 3314 2955 2959 2920 3318 3357 2925 2922 
2928 2924 2926 2929 2927 2931 2896 3329 2933 
2937 2900 2935 3337 3333 3294 2938 3298 2939 
2944 2945 2942 2943 2948 2949 2946 2947 2952 
3353 2951 2956 3393 2995 2960 3354 2965 2963 
2967 2969 2932 2971 3330 2934 2973 2936 3334 
2975 2940 2979 3377 2982 2983 3385 2984 2988 
3382 2989 2986 3389 2987 2992 3386 2991 2996 
3390 3031 2999 2998 3000 3005 2968 3003 3007 
3366 2972 3011 3370 2974 2976 3015 3374 3414 
3018 2980 3019 3417 3020 3418 3023 3421 3024 
3422 3425 3027 3429 3028 3032 3035 3036 2962 
2964 3037 3039 3034 3008 3445 3043 3406 3049 
3012 3410 3051 3047 3449 3016 3055 3453 3454 
3059 3457 3060 3458 3061 3063 3461 3064 3462 
3465 3067 3068 3072 3071 3073 3075 3070 3001 
3038 3004 3040 3042 3048 3442 3083 3485 3052 
3087 3446 3050 3056 3091 3095 3450 3493 3096 
3097 3099 3494 3100 3498 3103 3501 3104 3105 
3109 3107 3111 3108 3106 3074 3076 3077 3080 
3041 3078 3081 3079 3044 3441 3481 3478 3125 
3088 3123 3525 3482 3129 3092 3486 3127 3529 
3133 3131 3533 3136 3530 3490 3135 3534 3140 
3139 3141 3143 3142 3144 3110 3112 3145 3113 
3147 3114 3115 3116 3120 3517 3118 3119 3084 
3518 3165 3128 3522 3163 3565 3132 3167 3569 
3526 3573 3171 3176 3570 3175 3179 3538 3181 
3146 3148 3149 3150 3152 3151 3157 3153 3154 
3155 3156 3197 3159 3160 3161 3124 3561 3158 
3558 3199 3557 2801 3162 2803 3168 3164 3201 
3205 2807 3209 3172 3566 2811 2815 2817 3178 
3180 3184 3185 3183 3188 3187 3192 3191 3194 
3195 3196 2837 3198 2839 3200 3237 3598 3602 
3204 3641 3243 3249 3208 3212 3247 3610 3210 
3214 3216 3215 3613 3221 3217 3218 3220 3219 
3225 3226 3222 3224 3228 3227 3229 3232 3231 
3233 3236 3235 3634 3277 3240 3638 3677 3279 
3637 3248 3244 3285 3246 3251 3252 3250 3254 
3255 3253 3256 3257 3261 3259 3260 3265 3263 
3268 3269 3266 3267 3272 3271 3273 3275 3276 
3674 3280 3319 3678 3717 3283 3282 3288 3284 
3286 3287 3289 3292 3291 3686 3290 3293 3295 
3296 3694 3301 3264 3299 3304 3305 3303 3308 
3309 3306 3307 3312 3709 3706 3310 3311 3713 
3315 3316 3714 3355 3320 3325 3321 3323 3328 
3326 3327 3332 3300 3331 3335 3730 3341 3339 
3344 3345 3342 3343 3745 3348 3742 3349 3346 
3749 3347 3352 3350 3351 3753 3356 3750 3359 
3358 3360 3322 3362 3365 3363 3368 3765 3762 
3367 3371 3369 3373 3336 3734 3375 3338 3378 
3738 3340 3379 3777 3381 3383 3785 3781 3384 
3782 3388 3387 3789 3392 3786 3391 3395 3396 
3394 3324 3397 3361 3399 3405 3403 3407 3802 
3805 3409 3372 3770 3411 3413 3376 3415 3813 
3380 3778 3419 3420 3818 3817 3423 3821 3424 
3822 3426 3825 3427 3428 3432 3433 3431 3430 
3435 3400 3364 3398 3437 3401 3439 3402 3408 
3443 3806 3845 3412 3451 3447 3849 3814 3416 
3455 3853 3459 3857 3460 3858 3861 3463 3464 
3468 3469 3467 3471 3466 3434 3436 3475 3473 
3404 3438 3440 3477 3479 3877 3448 3842 3483 
3489 3452 3487 3889 3846 3456 3495 3491 3854 
3850 3893 3497 3499 3897 3500 3894 3503 3505 
3470 3472 3509 3511 3507 3513 3474 3476 3515 
3874 3913 3444 3480 3917 3488 3523 3925 3882 
3492 3527 3929 3886 3531 3496 3933 3890 3537 
3539 3535 3502 3541 3504 3508 3545 3506 3549 
3512 3547 3510 3514 3551 3516 3520 3521 3484 
3519 3559 3921 3528 3965 3563 3922 3961 3532 
3926 3567 3969 3536 3571 3575 3930 3540 3577 
3544 3542 3543 3548 3585 3583 3550 3546 3552 
3587 3554 3553 3555 3556 3957 3954 3524 3560 
3958 3562 3601 3203 3564 3962 3568 3605 3207 
3572 3966 3574 3213 3211 3576 3581 3579 3578 
3580 3584 3586 3582 3223 3588 3590 3589 3591 
3592 3990 3594 3593 3595 3596 3993 3597 3599 
3239 3600 3998 3645 3608 3604 3606 3612 3611 
3614 13 3616 3615 3618 3617 3620 3619 3621 
3661 3622 3624 3628 3663 3626 26 30 3630 
3629 3632 3631 3633 33 3636 3635 38 77 
3640 3679 41 3642 3646 3643 3647 46 49 
3650 50 3649 3652 3651 3654 3653 54 3655 
3656 3658 3657 3659 3660 3699 3662 3665 3664 
3668 66 3669 3666 3667 3672 3671 3673 3670 
3675 70 74 3676 3715 78 3644 3680 3648 
3681 3685 3683 3689 3690 3687 3692 3691 3693 
90 3695 3696 3701 3697 3700 3704 3705 3702 
3703 3708 109 3707 106 3712 3710 113 3711 
110 3716 3718 3719 3720 3682 3725 3688 125 
3723 3728 3726 3729 3727 3732 133 3733 3735 
3731 3736 3698 3737 3741 3739 3744 145 3743 
142 3748 3746 149 3747 146 3752 3754 3751 
3755 3756 3721 3757 3684 3759 165 3722 3763 
3768 3769 169 166 3766 3767 3772 173 170 
3773 3771 3775 138 3740 177 178 3779 185 
181 3783 182 3784 3788 3787 3792 193 3793 
3791 3760 3790 3795 3797 161 3758 3724 3761 
3799 162 205 202 3803 3808 3809 209 206 
3807 3811 174 3774 3776 3815 3780 217 3819 
218 3820 221 3823 3824 3829 3827 3826 3831 
3794 3796 3833 3835 3800 3764 3798 3801 3837 
3839 3841 3804 242 3843 3844 3810 245 249 
3812 210 3851 3847 214 3816 3855 253 257 
3859 3860 3828 3865 3863 3867 3830 3832 3869 
3871 3834 3836 3873 3875 3838 3840 3879 3885 
281 3848 285 3883 289 246 3852 3887 250 
254 293 3856 3891 3895 3899 3864 265 262 
3862 3901 3868 3866 3870 3872 3907 3909 3911 
274 313 3876 3915 3878 3881 3880 3919 282 
3888 325 3923 329 286 3892 3927 3896 3931 
290 3935 301 298 3898 3937 3900 3904 345 
3905 3902 3903 3908 3945 3949 3906 3912 3947 
3910 3914 3953 3916 3951 3955 357 3884 3918 
3920 321 365 322 3928 3963 361 326 3932 
3967 337 3934 3973 3936 3971 3940 3938 3939 
3944 3941 3943 3985 3942 3948 3946 3989 3952 
3987 393 3950 3956 3991 354 3959 358 3924 
3960 3603 1 362 3964 3968 3609 3607 3972 
377 3970 3975 3976 3974 3977 3978 3981 3979 
3980 3984 25 3983 3625 3982 3623 3988 29 
3986 3627 3992 390 3994 3995 3996 3997 397 
3999 3639 398 4000 
type 1 4000 int
1 1 1 1 1 1 1 1 1 
1 1 1 1 1 1 1 1 1 
1 1 1 1 1 1 1 1 1 
1 1 1 1 1 1 1 1 1 
1 1 1 1 1 1 1 1 1 
1 1 1 1 1 1 1 1 1 
1 1 1 1 1 1 1 1 1 
1 1 1 1 1 1 1 1 1 
1 1 1 1 1 1 1 1 1 
1 1 1 1 1 1 1 1 1 
1 1 1 1 1 1 1 1 1 
1 1 1 1 1 1 1 1 1 
1 1 1 1 1 1 1 1 1 
1 1 1 1 1 1 1 1 1 
1 1 1 1 1 1 1 1 1 
1 1 1 1 1 1 1 1 1 
1 1 1 1 1 1 1 1 1 
1 1 1 1 1 1 1 1 1 
1 1 1 1 1 1 1 1 1 
1 1 1 1 1 1 1 1 1 
1 1 1 1 1 1 1 1 1 
1 1 1 1 1 1 1 1 1 
1 1 1 1 1 1 1 1 1 
1 1 1 1 1 1 1 1 1 
1 1 1 1 1 1 1 1 1 
1 1 1 1 1 1 1 1 1 
1 1 1 1 1 1 1 1 1 
1 1 1 1 1 1 1 1 1 
1 1 1 1 1 1 1 1 1 
1 1 1 1 1 1 1 1 1 
1 1 1 1 1 1 1 1 1 