# vtk DataFile Version 4.0
Generated by LAMMPS
ASCII
DATASET POLYDATA
POINTS 4000 float
6.93753 -1.20641 1.4993 4.6236 -2.85243 1.54847 5.03188 -0.904875 -0.501098 
6.5356 -3.32871 -0.483928 10.8061 -2.03659 1.8203 8.46717 -3.43794 1.63558 
10.8147 -0.17988 -0.448169 9.06816 0.25113 1.70568 8.60087 -1.59476 -0.546211 
12.8599 -0.184083 1.58495 14.5481 -2.77597 1.72899 14.7348 -0.785571 -0.422216 
16.6182 -1.0124 1.82691 18.1473 -3.52676 1.45647 20.4941 -1.70645 1.77713 
23.9484 -2.40632 1.78816 22.4182 0.0213548 1.5238 20.7214 0.310567 3.88082 
27.8606 -3.08571 1.33292 26.2163 -0.796111 1.62944 25.9696 -2.7691 3.63152 
29.837 -1.30225 1.46246 31.9319 -1.56797 3.62378 32.2402 0.33387 1.49704 
31.8747 -1.66114 -0.508669 31.7673 -3.55241 1.50723 36.3307 -0.554852 1.54408 
33.8856 -1.99781 1.55679 34.1234 -0.0536236 3.49521 4.9296 1.21149 1.46827 
7.26182 2.6741 1.7125 7.04904 0.798483 -0.561244 7.58552 4.74991 3.51399 
9.60361 4.56489 1.41576 11.169 2.03449 1.68429 9.2782 2.32913 3.60713 
9.19507 2.51016 -0.497274 14.9067 1.34028 1.62905 13.3797 3.8431 1.61168 
18.7996 0.550294 1.70013 17.0858 2.97344 1.67492 18.8082 2.68905 3.77211 
18.8306 2.6618 -0.553424 16.7599 0.963518 -0.543923 17.3087 5.10934 -0.505879 
20.7897 2.54859 1.447 22.8158 4.31385 1.47594 22.6261 2.1816 3.46046 
21.03 4.61795 3.62757 24.6612 1.77961 1.53842 26.8578 3.65564 1.32708 
28.0885 1.10783 1.53986 24.7866 3.82878 3.68207 24.8987 3.95241 -0.652887 
30.2348 0.79286 3.64687 30.5542 2.72326 1.74309 28.671 3.22301 3.71774 
32.6252 2.28729 3.62902 32.8582 4.40502 1.58703 32.4439 2.3542 -0.495166 
28.7212 3.09131 -0.622692 30.8512 4.7359 -0.658245 30.0771 0.747806 -0.337291 
36.6645 3.50023 1.56996 34.3571 2.07517 1.5 36.4402 1.44727 3.53876 
5.70243 5.07898 1.7162 4.09105 7.58274 1.58882 7.66889 6.88722 1.50946 
3.83466 5.67294 -0.420995 6.0359 9.42125 1.63384 7.33643 5.06779 -0.625924 
5.79814 7.40909 -0.656279 11.5992 6.18835 1.75647 9.91077 8.54331 1.60503 
9.70352 6.46009 -0.452127 11.8869 8.30821 -0.440265 8.1071 9.00868 -0.407664 
15.345 5.50387 1.54695 13.7806 7.86752 1.58439 15.6123 7.63343 -0.366408 
13.453 5.94052 -0.432379 19.2853 4.75814 1.6326 17.5007 7.26699 1.65405 
19.5927 9.02305 1.64604 17.2789 5.19353 3.70206 19.3798 7.02491 3.80331 
19.3507 6.903 -0.473231 21.1853 6.66421 1.43136 23.4446 8.27175 1.70146 
21.6262 8.78786 -0.571405 23.0469 6.3693 -0.561274 24.9073 5.91828 1.57033 
26.9474 5.75891 3.68543 27.0243 7.64335 1.77113 31.0788 6.82546 1.44742 
28.8871 5.34251 1.55698 29.0205 7.18082 3.75532 29.2858 9.42519 1.46555 
35.1245 6.02158 1.57039 33.1562 8.32725 1.70422 35.1887 8.05728 3.77343 
35.1328 7.90606 -0.477463 32.9449 6.39421 -0.600667 4.46014 11.6949 1.73752 
4.22109 9.5306 3.76603 4.34492 9.74864 -0.321646 6.68613 13.3769 1.67606 
4.79762 13.8708 -0.294262 8.2632 11.0777 1.94209 10.4176 12.8598 1.80854 
10.158 10.6399 -0.282552 8.59412 13.3386 -0.590056 12.0761 10.3788 1.72092 
14.3281 12.0971 1.82752 15.8178 9.68906 1.7443 12.3708 12.3788 -0.329432 
13.9708 10.0907 -0.268475 17.7204 11.6346 1.57957 19.7106 11.3191 3.57809 
18.0715 13.5786 3.61864 20.015 13.2637 1.63992 17.6014 9.41823 -0.470727 
19.8322 11.0335 -0.428099 21.7483 10.7779 1.69988 24.0068 12.3534 1.6158 
25.5879 9.8573 1.67328 27.6708 11.6633 1.61033 28.0486 13.746 -0.25012 
31.6161 10.8043 1.67022 30.0186 13.2152 1.72741 29.69 11.214 3.80457 
35.5038 9.99508 1.64286 33.6982 12.4659 1.53915 33.5103 10.3836 3.79768 
35.7859 12.1635 -0.354878 5.08116 15.8566 1.64483 7.13475 17.6514 1.61854 
5.40529 18.0681 3.80514 6.75169 15.637 -0.479237 8.74251 15.3531 1.62604 
10.9421 17.0748 1.92199 9.0754 17.3719 -0.276735 10.7924 14.9327 -0.3898 
12.4243 14.5848 1.73333 14.4288 16.494 1.68898 12.6239 16.8215 -0.410424 
16.1588 14.1271 1.59634 18.4653 15.6951 1.39501 16.7439 18.0496 1.65567 
16.5627 15.977 -0.506303 22.2703 14.6573 1.60561 20.6009 17.2382 1.50676 
20.1512 15.3133 3.714 24.2129 14.4612 -0.564826 24.3634 16.5112 1.53518 
26.0358 14.0862 1.42555 26.4254 15.8687 3.70502 28.3717 15.7124 1.57457 
26.4225 16.0713 -0.318112 26.675 18.0832 1.6518 32.1465 14.9907 1.68377 
30.4922 17.3179 1.53527 32.4784 16.9854 -0.345425 30.2426 15.2753 -0.525409 
28.4437 17.8626 -0.420951 36.1361 14.1633 1.71158 34.4492 16.6708 1.65089 
36.382 16.3084 3.60041 36.3703 16.4175 -0.415095 5.50692 20.1007 1.61976 
5.72335 22.0949 3.67165 7.57827 21.8125 1.60204 3.71504 22.4289 1.64778 
5.27095 17.9994 -0.384858 9.26281 19.3887 1.6853 11.393 21.2616 1.73968 
10.9946 19.2362 -0.621417 12.9501 19.0145 1.6674 15.1304 20.5525 1.63011 
14.8202 18.655 3.73921 18.7099 19.6545 1.46578 19.0683 21.7978 3.83194 
17.2027 22.1214 1.57346 17.0329 20.1857 3.53246 22.789 18.6121 1.40519 
20.8569 19.0877 3.53465 20.8867 21.3292 1.60699 23.0378 20.8625 3.44011 
25.0929 20.5798 1.46558 27.3563 22.218 1.70359 24.7014 18.2993 3.75397 
26.8989 20.0296 3.62716 24.8428 18.4238 -0.653609 28.8707 19.6863 1.60338 
30.7961 19.4718 -0.39389 30.8163 21.5103 1.79229 32.8021 19.0601 1.56644 
29.0478 21.8526 -0.401538 36.5535 18.3172 1.7685 34.8386 20.5722 1.52242 
37.0133 20.2196 3.72136 32.7946 21.1827 -0.394178 36.7371 20.2071 -0.50104 
34.5887 18.4838 -0.418224 5.99854 24.1645 1.6268 3.81784 24.5874 3.45371 
4.0981 26.6152 1.60609 6.03995 26.2913 -0.595832 7.88307 26.1009 1.51152 
9.67721 23.8235 1.53869 11.5969 25.433 1.54712 9.87379 25.4521 -0.575818 
11.6488 23.3404 -0.484336 13.4853 22.9443 1.7559 15.4917 24.6198 1.58584 
13.6683 24.8656 3.72363 15.8969 26.5598 3.63271 17.814 26.1843 1.49824 
19.5504 23.7628 1.47853 19.8607 25.6659 -0.729176 17.6971 24.257 -0.505789 
23.3598 23.0233 1.53955 21.7511 25.4471 1.65387 21.4062 23.2713 3.78552 
23.5108 24.9428 -0.416885 25.1893 22.6738 3.55124 25.5089 24.5369 1.55959 
27.7293 26.335 1.54289 27.4241 24.3573 3.66074 27.5159 24.2508 -0.531784 
25.4245 22.4514 -0.591484 25.7669 26.5697 -0.528265 29.3962 24.1353 1.83564 
31.6752 25.5716 1.52947 31.3315 23.5563 3.78272 29.732 25.9121 3.79909 
33.3343 23.0194 1.59117 35.4609 24.8068 1.43422 33.6364 25.1585 -0.657434 
6.06868 28.3207 1.67233 4.49995 30.7574 1.58551 4.20818 28.8197 3.62127 
6.364 30.5258 -0.338625 7.98578 28.0555 3.77104 10.064 27.6731 1.6251 
8.20855 30.135 1.66385 10.4541 29.4596 3.64888 8.03315 28.2283 -0.484661 
10.4281 29.6671 -0.424365 12.0221 27.19 -0.611618 13.9218 26.8205 1.47358 
11.9743 27.2645 3.65864 12.3855 29.1142 1.50287 14.3316 28.8408 3.53875 
14.662 30.806 1.5337 12.6434 31.4595 3.6386 16.2097 28.4734 1.47582 
18.2151 30.3333 1.74464 19.9515 27.744 1.77047 17.949 28.2164 3.8674 
18.0753 28.2714 -0.338486 20.2765 29.8268 -0.34703 23.9575 26.9972 1.78405 
22.174 29.2508 1.61287 24.1504 29.0749 -0.621491 22.134 27.3874 -0.390583 
26.0216 28.7058 1.74679 27.9315 28.1962 -0.470253 28.1374 30.4134 1.71591 
27.9849 28.2766 3.75474 26.3048 30.7519 3.73885 26.4238 30.671 -0.268307 
29.8972 27.8547 1.63561 32.0558 29.624 1.4961 30.1262 30.0296 -0.307684 
31.6976 27.6519 -0.56001 33.7398 27.3021 1.32803 35.6988 29.1562 1.4779 
6.72232 32.6415 1.51717 4.99019 34.8325 1.7516 4.82361 32.8126 3.73004 
7.11105 34.6678 -0.450688 10.6079 31.59 1.74455 9.06035 34.0912 1.55982 
10.8443 33.7291 3.60302 11.0248 33.4374 -0.509008 8.70415 31.9821 -0.325221 
12.922 33.3197 1.67873 14.9236 35.0851 1.54799 12.6628 31.2692 -0.483597 
13.0773 35.377 -0.542749 16.6051 32.9088 1.71123 18.9655 34.1452 1.48297 
18.6347 32.2048 3.7831 18.7271 32.1776 -0.364625 20.6816 31.6351 1.49788 
22.7356 33.5584 1.56341 20.718 33.792 3.76106 24.1396 30.9074 1.477 
26.5184 32.6006 1.73053 24.7396 33.1018 -0.519146 25.0161 35.0243 1.4206 
24.6558 33.0624 3.64511 28.5167 32.3567 -0.231407 26.9432 34.6994 -0.346286 
28.6612 34.3736 1.63006 30.4087 32.0191 1.66469 32.2098 31.7441 -0.453946 
32.4095 33.882 1.65556 32.2406 31.7489 3.68401 30.5156 34.1817 -0.547469 
34.1409 31.4483 1.65598 36.1453 33.0952 1.5013 34.6596 35.51 1.57915 
36.4091 35.2341 -0.431008 7.23916 36.4252 1.6916 5.55461 39.0034 1.70985 
3.51413 39.3712 3.71849 7.58099 38.5925 3.61562 7.586 38.6067 -0.495188 
5.45316 36.8542 -0.310762 3.69496 39.395 -0.40287 11.2267 35.7144 1.71763 
9.51442 38.1745 1.69643 9.11145 36.1185 3.96372 11.5587 37.7674 -0.464572 
11.6939 39.7969 1.76215 13.4305 37.488 1.67176 15.4832 39.273 1.59512 
15.293 37.135 -0.382937 17.3346 36.4997 1.57827 19.3297 38.1494 1.78422 
19.1336 36.3468 -0.562604 21.0522 35.6742 1.55377 23.386 37.4891 1.59999 
21.3765 37.8218 -0.232669 26.9988 36.7292 1.66679 25.2593 39.2274 1.62835 
25.1747 37.1498 3.78148 30.7946 36.3556 1.57084 29.0732 38.664 1.57004 
28.8591 36.6157 -0.67171 28.9075 36.5316 3.73878 31.1493 38.3019 3.73329 
30.92 38.4258 -0.412637 36.5856 37.2751 1.68459 32.9149 37.9326 1.59527 
34.657 37.6274 3.66471 35.0068 39.8895 1.65302 34.7355 37.7367 -0.37739 
6.08968 43.1166 1.66086 3.79641 41.5059 1.629 5.88363 40.9198 -0.32784 
4.41574 43.1836 -0.557633 7.80416 40.5635 1.71653 9.79382 40.2221 3.7112 
10.0446 42.3301 1.5578 8.28118 42.6227 3.73799 10.3111 44.4194 -0.53074 
8.231 42.4982 -0.392481 9.91604 40.1603 -0.430485 13.8699 41.4802 1.798 
12.2578 43.9199 1.66422 15.8249 41.0121 3.73473 14.3112 43.4964 -0.407361 
15.8395 41.1545 -0.514867 16.0911 43.1224 1.68488 17.7628 40.5746 1.70692 
19.7826 42.3169 1.73252 18.1862 42.7501 -0.720961 21.9674 44.1568 1.70195 
21.5622 39.8092 1.72246 23.6666 41.6978 1.62986 23.9879 43.7904 3.64145 
25.8011 43.5201 1.38161 27.5946 40.9583 1.44537 27.7684 43.1874 3.52759 
25.5811 41.3818 3.45414 29.5923 42.9671 1.4656 30.9432 40.5943 1.51777 
29.4067 40.8691 3.68388 33.286 40.1699 -0.571113 33.7592 44.0696 3.72788 
35.5258 44.0233 1.51871 33.279 42.1591 1.63753 4.81651 -0.787511 3.52048 
6.39107 -3.0519 3.7097 6.62548 -1.21638 5.82401 4.44999 -2.78532 5.63135 
8.68952 -1.66865 3.68864 10.9718 -0.216688 3.87277 10.8093 -2.0718 5.90633 
8.31125 -3.61696 5.82235 9.00238 0.352329 5.83217 12.6247 -2.5307 3.9481 
14.5385 -0.767432 3.77066 12.7316 -0.322801 5.82332 14.3356 -2.71606 6.01291 
[...]
POINT_DATA 4000
FIELD FieldData 6
id 1 4000 int
7 3 2 5 11 372 10 12 9 
16 15 14 20 19 24 28 63 461 
32 67 426 36 434 75 34 35 4 
40 438 8 47 6 446 52 51 449 
49 55 56 59 60 458 58 57 97 
64 103 462 501 68 72 71 505 66 
473 76 470 477 80 74 70 113 73 
43 79 402 48 83 87 42 88 46 
85 91 92 89 90 86 95 96 94 
93 99 100 139 497 498 98 104 108 
102 105 107 509 112 115 111 513 116 
44 119 481 81 117 123 482 82 128 
122 127 132 129 126 131 136 135 130 
133 140 538 577 144 137 141 143 148 
147 151 150 120 155 514 84 159 518 
121 163 168 562 165 167 172 166 169 
171 176 170 175 179 180 177 183 184 
581 185 187 152 550 156 189 191 160 
195 197 154 193 124 199 561 161 203 
602 208 204 162 207 212 209 211 215 
613 219 621 220 617 188 582 223 586 
192 231 589 590 186 196 194 235 200 
233 164 239 601 237 201 198 243 641 
244 242 248 247 251 249 210 216 255 
653 657 259 224 261 257 227 228 625 
226 629 232 271 630 230 229 269 236 
275 634 673 240 279 277 283 284 681 
285 685 252 287 689 246 289 250 256 
650 291 654 295 693 260 264 263 661 
258 262 267 268 266 265 272 270 311 
670 709 309 276 315 313 274 280 319 
288 323 721 325 292 327 690 329 286 
296 300 290 333 299 304 701 301 303 
308 702 307 312 306 347 706 310 349 
351 316 314 355 714 353 320 359 360 
321 328 363 761 726 365 322 361 331 
332 729 330 336 335 340 337 339 344 
341 343 348 342 352 387 746 356 391 
350 750 793 393 324 395 797 399 358 
368 364 362 1 367 730 371 769 370 
366 369 375 376 777 374 377 380 379 
384 378 23 383 388 425 27 392 429 
786 31 396 790 397 437 39 400 405 
766 407 768 409 410 411 772 412 413 
414 416 415 418 421 417 420 419 422 
424 463 822 428 465 469 432 467 869 
826 430 471 830 475 436 401 403 440 
801 838 406 445 408 447 450 451 452 
850 453 454 455 456 853 854 457 459 
460 857 858 499 464 503 901 466 468 
507 472 474 476 874 441 479 443 404 
485 442 448 487 483 488 486 489 490 
492 491 890 889 493 494 495 496 894 
897 500 898 539 502 541 941 504 543 
506 508 512 517 511 480 515 478 444 
519 881 525 882 523 528 526 529 527 
532 926 531 533 530 535 536 934 537 
534 937 540 579 938 575 545 542 544 
548 549 510 553 516 547 557 520 555 
521 484 559 522 565 922 563 568 569 
566 567 572 573 570 571 576 973 578 
574 580 615 585 546 583 584 978 593 
552 551 950 556 554 597 993 560 595 
954 997 558 524 599 961 605 603 1002 
608 604 609 606 607 612 610 614 611 
616 1013 619 620 1014 1021 588 587 591 
592 631 1029 594 633 596 635 1033 600 
637 598 1001 564 639 1037 642 645 643 
1042 644 1045 649 646 647 648 1049 652 
1046 651 655 656 618 622 623 624 626 
627 628 1025 669 632 1030 671 636 675 
638 677 678 640 679 1038 1077 682 683 
684 687 688 1085 1086 1089 691 660 1054 
658 662 659 664 663 1062 666 665 667 
668 1066 707 672 1070 711 674 713 676 
715 717 718 680 719 725 723 724 1122 
686 692 727 1125 1090 694 697 695 700 
1097 1094 698 699 704 1098 705 745 703 
708 749 712 1106 747 1149 1110 710 753 
751 716 755 757 758 720 759 1157 1158 
760 722 728 763 1161 733 696 731 1133 
1129 736 734 737 735 740 1134 738 741 
739 744 742 785 743 748 783 789 752 
787 1189 754 756 791 1193 799 1154 795 
800 762 765 767 764 1165 770 773 732 
771 774 776 775 780 778 781 779 784 
782 423 788 825 427 792 829 1186 433 
431 796 1190 833 794 798 439 435 805 
1166 803 807 810 809 811 1209 1172 812 
814 813 816 815 817 821 818 820 819 
1217 1221 865 861 824 828 863 1222 832 
867 1226 873 871 1234 875 836 840 804 
1277 806 845 846 1206 808 847 849 851 
852 1249 1250 855 856 1253 859 860 899 
862 864 903 905 866 909 868 907 872 
870 877 876 1273 1274 880 841 802 843 
879 885 848 883 886 887 891 892 893 
1293 895 896 1294 1297 900 939 1337 902 
904 943 906 945 908 912 1306 917 913 
911 915 916 842 878 844 919 925 888 
923 928 929 927 932 933 930 931 935 
1330 936 977 1334 940 979 1338 942 981 
944 948 910 949 947 951 957 914 920 
955 1357 918 921 884 959 965 962 963 
968 1362 969 966 967 972 970 971 976 
1373 974 1017 975 980 1374 1015 946 985 
1381 983 984 1382 1385 987 953 952 956 
1389 1393 960 1354 995 958 924 1361 999 
1358 1005 1003 1405 1008 1006 1009 1007 1012 
1406 1409 1010 1011 1016 1410 1019 1020 1417 
1418 986 982 988 1023 1421 1425 989 990 
991 992 1031 1386 994 996 1035 1000 998 
1437 1401 964 1039 1398 1041 1043 1044 1441 
1442 1445 1004 1047 1048 1052 1053 1050 1057 
1055 1051 1454 1022 1018 1024 1059 1026 1027 
1028 1426 1069 1429 1032 1071 1430 1469 1034 
1073 1036 1075 1473 1434 1040 1079 1477 1478 
1081 1082 1083 1084 1087 1088 1485 1056 1091 
1095 1061 1058 1060 1064 1063 1458 1065 1067 
1068 1466 1109 1072 1111 1107 1113 1074 1076 
1115 1513 1078 1117 1118 1080 1119 1518 1121 
1123 1124 1521 1525 1092 1127 1093 1096 1100 
1494 1490 1101 1099 1104 1102 1105 1145 1103 
1108 1502 1545 1506 1112 1147 1153 1114 1151 
1116 1553 1155 1514 1120 1159 1160 1557 1126 
1198 1128 1163 1565 1131 1132 1136 1530 1526 
1137 1135 1140 1141 1138 1139 1144 1142 1185 
1143 1148 1542 1146 1152 1187 1546 1150 1156 
1191 1593 1197 1199 1554 1195 1200 1597 1162 
1168 1164 1201 1562 1167 1170 1130 1169 1171 
1173 1174 1177 1176 1175 1180 1178 1181 1179 
1184 1182 1183 823 1188 1225 827 1192 1586 
1229 831 1196 1590 834 1194 837 839 835 
1594 1598 1202 1205 1208 1204 1602 1210 1610 
1207 1211 1609 1212 1213 1214 1216 1215 1614 
1613 1218 1220 1219 1617 1224 1261 1265 1228 
1263 1269 1267 1232 1630 1626 1230 1236 1235 
1275 1238 1240 1279 1638 1245 1246 1247 1243 
1251 1252 1650 1254 1653 1255 1256 1654 1257 
1258 1259 1260 1658 1299 1262 1301 1264 1303 
1266 1305 1271 1268 1272 1669 1666 1270 1276 
1673 1674 1315 1241 1278 1244 1280 1285 1242 
1248 1283 1287 1286 1289 1290 1291 1292 1295 
1296 1693 1298 1697 1300 1339 1302 1341 1304 
1308 1309 1307 1312 1313 1310 1314 1311 1316 
1753 1281 1317 1319 1320 1325 1282 1288 1323 
1725 1328 1326 1329 1327 1332 1333 1331 1336 
1335 1377 1734 1737 1340 1344 1741 1345 1342 
1343 1348 1745 1742 1349 1346 1347 1352 1353 
1351 1355 1356 1750 1754 1318 1321 1284 1359 
1322 1365 1363 1368 1722 1762 1369 1366 1367 
1372 1370 1371 1376 1770 1375 1378 1379 1778 
1380 1781 1384 1383 1785 1782 1388 1350 1387 
1391 1392 1397 1360 1395 1793 1324 1399 1761 
1402 1403 1805 1802 1408 1407 1412 1413 1411 
1415 1813 1814 1419 1420 1818 1423 1424 1821 
1822 1390 1427 1431 1825 1829 1394 1433 1396 
1794 1435 1833 1400 1364 1801 1798 1439 1837 
1443 1444 1842 1841 1845 1404 1449 1446 1451 
1447 1448 1414 1453 1416 1455 1853 1457 1461 
1459 1460 1422 1428 1463 1861 1865 1432 1471 
1436 1475 1873 1438 1440 1479 1481 1482 1483 
1484 1881 1489 1450 1452 1487 1493 1456 1491 
1850 1893 1496 1497 1462 1495 1464 1499 1894 
1897 1465 1467 1468 1470 1509 1869 1472 1870 
1511 1909 1474 1476 1515 1517 1480 1519 1878 
1918 1917 1488 1523 1882 1486 1529 1492 1527 
1929 1533 1890 1531 1535 1933 1498 1501 1500 
1504 1898 1505 1503 1508 1902 1549 1507 1512 
1547 1949 1510 1516 1555 1914 1551 1953 1558 
1520 1559 1522 1561 1528 1563 1922 1961 1532 
1567 1571 1926 1534 1537 1536 1540 1538 1541 
1539 1544 1585 1945 1543 1548 1942 1589 1552 
1587 1550 1950 1556 1591 1560 1524 1595 1599 
1203 1564 1962 1601 1568 1570 1566 1569 1572 
1605 1966 1970 1573 1574 1577 1575 1576 1977 
1580 1581 1578 1579 1584 1981 1582 1985 1583 
1223 1588 1625 1982 1227 1592 1233 1231 1596 
1237 1239 1600 1637 1641 1604 1643 2041 2002 
1606 1608 1612 2045 1616 1615 1618 1621 1620 
1619 1624 1661 1622 1665 1628 1663 2026 1632 
1631 2030 1634 1633 1636 1635 2034 1675 1677 
1640 1679 2077 2037 1642 1645 2042 1648 1644 
2081 1649 1647 1651 1652 2050 2046 1655 1656 
2053 1657 1660 1659 2057 1701 1662 2061 1664 
1668 2065 2062 1667 1671 1672 2066 2070 1670 
1676 2073 2074 1717 1678 1715 1680 1719 2078 
2117 1646 1685 1683 1684 1687 1689 1686 1690 
2089 1692 1691 1694 1695 1696 1698 1699 1700 
1704 1705 1702 1703 1708 2105 2102 1709 1706 
1707 1712 1713 1710 2113 1711 1716 2153 1681 
1714 1718 1720 1755 2114 2157 1682 1688 1723 
2125 1728 1729 1726 1727 1732 2129 2126 1730 
1733 1731 2133 1736 2130 1735 1738 1739 2098 
1744 2141 1743 1748 2142 1749 1746 1747 1752 
2149 1751 1756 1791 2150 2193 1721 1757 1759 
1760 2158 1765 2165 1763 1768 1769 1766 1767 
2169 1772 2166 1773 1771 1775 1777 1740 1779 
2177 1780 2181 1783 1784 2185 2182 1788 1789 
1786 1787 1792 1797 1790 1795 1796 2194 1758 
1724 1799 2161 2197 2162 2205 1803 1808 1804 
1806 1809 1807 1811 2170 2209 1774 1776 1815 
2213 2174 1817 1819 1820 2217 1823 1824 2221 
2222 1827 1828 1832 2225 2226 1831 1835 2230 
1800 2201 1764 2198 2237 1839 1843 1844 2241 
1810 1849 1847 1812 1851 2210 1816 1855 1857 
1858 1859 1860 2257 2258 1863 1864 2261 2262 
1826 1830 1867 1871 2265 2269 2266 1834 1836 
2234 1875 1838 1877 1840 2238 2277 1879 1885 
1848 1883 2285 2242 1846 1889 1852 1887 2246 
2289 1854 1856 1891 1896 1899 1895 1900 2294 
1901 1866 1862 1868 1903 2298 1872 2270 2309 
1911 1874 1913 1876 2274 1915 2313 1880 1919 
2317 2281 1925 1888 1923 2282 1886 1892 1927 
2329 2286 1930 1931 1936 1937 1935 1939 1905 
1907 1904 1908 2341 1906 1947 1912 2306 2349 
1910 2310 1951 1916 1955 2314 2353 1957 1921 
1884 1920 2321 2318 1965 1928 1963 2365 2322 
1924 1969 1932 1967 1934 1973 1975 1971 2373 
2370 1941 1938 1944 1940 2377 1943 2345 1948 
2385 1946 1989 1952 1987 1993 1991 1956 1954 
1958 1959 1960 1999 1603 1964 2362 2001 1972 
1968 2005 1607 1974 1611 1976 1980 2374 1978 
1979 1984 2378 1623 1983 1988 1629 1986 1627 
1992 1994 1990 1995 1996 1997 1998 1639 2000 
2043 2004 2441 2008 2047 2049 2006 2445 2014 
2010 2016 2051 2449 2017 2018 2021 2020 2019 
2024 2414 2421 2022 2028 2027 2425 2029 2032 
2031 2033 2035 2036 2075 2434 2038 2040 2079 
2477 2438 2044 2083 2481 2442 2048 2052 2087 
2446 2485 2489 2054 2055 2056 2450 2059 2058 
2060 2063 2068 2422 2465 2462 2069 2067 2072 
2071 2469 2076 2470 2473 2474 2115 2119 2080 
2517 2478 2085 2082 2084 2159 2088 2521 2091 
2092 2090 2490 2093 2094 2095 2096 2064 2097 
2101 2099 2104 2103 2108 2505 2109 2106 2107 
2112 2509 2111 2110 2116 2553 2118 2120 2155 
2557 2086 2123 2121 2124 2127 2132 2526 2131 
2135 2100 2537 2137 2139 2144 2138 2538 2145 
2143 2148 2545 2542 2146 2147 2152 2546 2151 
2156 2191 2593 2550 2154 2160 2195 2554 2128 
2122 2168 2163 2565 2167 2171 2569 2530 2134 
2173 2136 2175 2573 2140 2178 2179 2184 2183 
2188 2585 2582 2189 2187 2186 2229 2192 2586 
2190 2196 2231 2629 2633 2199 2200 2598 2594 
2202 2203 2605 2207 2172 2211 2570 2609 2176 
2215 2613 2574 2180 2218 2219 2220 2617 2223 
2224 2622 2227 2228 2267 2625 2232 2233 2236 
2630 2669 2235 2164 2239 2637 2634 2601 2204 
2208 2245 2243 2602 2206 2249 2212 2247 2606 
2251 2214 2253 2254 2216 2255 2614 2653 2654 
2259 2260 2658 2657 2263 2264 2662 2272 2268 
2666 2665 2273 2271 2275 2673 2240 2279 2638 
2677 2283 2248 2685 2642 2252 2287 2250 2293 
2291 2256 2296 2650 2295 2297 2300 2299 2694 
2697 2301 2303 2305 2304 2701 2702 2311 2307 
2705 2706 2709 2276 2315 2713 2674 2278 2244 
2280 2681 2641 2678 2325 2288 2323 2682 2292 
2327 2729 2686 2290 2333 2331 2336 2733 2690 
2335 2337 2334 2340 2737 2339 2302 2343 2738 
2308 2312 2347 2351 2316 2320 2284 2319 2718 
2721 2328 2363 2361 2324 2722 2326 2332 2369 
2367 2726 2330 2371 2376 2338 2375 2379 2777 
2342 2344 2348 2742 2346 2389 2352 2387 2750 
2350 2354 2355 2356 2753 2754 2357 2359 2358 
2399 2360 2758 2003 2364 2368 2762 2372 2366 
2007 2009 2766 2012 2013 2011 2015 2381 2380 
2384 2417 2778 2382 2025 2383 2023 2388 2786 
2386 2390 2392 2391 2393 2394 2395 2396 2794 
2397 2398 2039 2400 2437 2402 2404 2443 2841 
2408 2447 2448 2406 2846 2845 2806 2451 2452 
2453 2849 2853 2418 2420 2419 3182 2821 2814 
2423 2428 2427 2426 2429 2430 2432 2431 2826 
2830 2433 2436 2435 2834 2440 2479 2877 2444 
2483 2881 2842 2487 2488 2893 2454 2455 2456 
2850 2424 2461 2457 2459 2861 2818 2463 2468 
2862 2865 2466 2467 2472 2471 2869 2475 2476 
2873 2874 2519 2515 2480 2917 2482 2484 2523 
2882 2918 2921 2525 2486 2492 2491 2493 2497 
2460 2495 2854 2464 2458 2501 2499 2504 2502 
2503 2508 2905 2506 2507 2512 2513 2510 2511 
2516 2913 2910 2518 2559 2514 2555 2520 2914 
2957 2524 2522 2558 2599 2958 2529 2527 2531 
2496 2533 2494 2535 2500 2498 2541 2539 2544 
2941 2938 2543 2548 2942 2549 2547 2552 2949 
2946 2551 2556 2591 2950 2993 2597 2595 2560 
2954 2997 2528 2561 2563 2567 2922 2965 2532 
2571 2969 2534 2536 2575 2540 2577 2578 2579 
2581 2584 2583 2982 2588 2589 2587 2592 2986 
2590 2596 2631 3029 2990 2635 2600 2994 2998 
2562 2566 2568 2607 2962 2572 2611 2970 3009 
2576 2615 2580 2618 2619 2620 3017 2621 2623 
2624 3022 2627 2626 2628 2667 3025 3026 2632 
2671 3069 3030 2636 2564 2639 3034 2603 2645 
2608 2643 3045 3002 2610 2649 2612 2647 2651 
3006 3010 2616 2655 3014 3053 3054 2659 2660 
3057 3058 2661 2663 2664 3062 3061 2668 2707 
3066 3065 2670 2675 2672 3073 2604 2640 3001 
3038 2648 2683 3042 2646 2689 2652 2687 3089 
2656 2693 2691 2696 3093 2695 2700 2699 3094 
3097 2698 2703 2704 3098 3101 3102 2711 2708 
3105 3109 3106 2676 2680 3074 3077 2679 2644 
3041 3078 3081 2725 2688 2723 3082 2692 2727 
2731 2736 3090 3133 2734 2735 2740 3134 3137 
2739 2741 2744 3138 3141 2743 2745 2749 2710 
2712 2747 3110 3113 2714 2716 2717 2715 2720 
3114 2719 2684 3121 3118 2728 2763 2761 2765 
3122 3161 3165 2769 2732 2767 3126 3169 2730 
2773 2771 2776 2770 3173 3170 2774 2775 2780 
3177 2781 2779 2748 3146 2746 2752 2751 3149 
3150 2755 2756 3153 3154 3157 2724 2759 2757 
2760 2799 2797 2401 2403 2764 3162 2772 2405 
2768 2407 3166 2805 2409 2410 2413 2412 2411 
2416 2809 2810 2813 2415 2784 2785 2783 2782 
2788 2787 3185 2789 2790 2792 2791 3189 2793 
2795 2796 3193 2798 2439 2800 3197 3198 2802 
2804 2843 2808 2847 3245 2851 2816 2812 3210 
3214 2820 2819 3221 3217 2825 2828 2823 2827 
2822 3222 2829 2832 2831 3230 3229 2833 2836 
2835 3234 2838 2840 2879 3238 2844 2883 3281 
3285 2885 2848 2852 2887 3246 3250 2857 2856 
2855 3254 3253 2824 2859 3257 2863 2868 3265 
2866 2871 2867 2872 2875 2870 2876 2915 3270 
3274 3313 2878 2880 2919 3278 3317 2884 2959 
2888 3318 2889 2886 2891 2892 2890 3286 3289 
2897 2860 2895 2864 2858 2901 2899 2904 3301 
2902 2903 2908 3302 3305 2909 2906 2907 2912 
3309 3306 2953 2911 2916 3353 3310 2955 2920 
3357 2923 2925 2924 3325 3321 2926 2929 2927 
2931 2894 2896 2933 2900 2935 2937 2898 2939 
2944 3341 2945 2943 2948 3345 2947 2952 3349 
2951 2956 2991 3350 2995 2960 3354 3358 2928 
2963 2967 3322 2930 2932 2971 3369 2934 2973 
2936 2975 2977 2978 2940 2979 3377 3378 2981 
2985 2983 2984 3382 3381 3385 2989 2988 2987 
2992 3389 3386 3033 2996 3031 3390 3394 2999 
3000 3397 2961 2966 3005 2968 3007 3366 3405 
2972 3011 3370 2974 3013 2976 3015 3374 3413 
2980 3018 3019 3020 3417 3418 3021 3023 3024 
3421 3422 3027 3028 3425 3426 3032 3036 3433 
3430 3035 2964 3037 3039 3437 3003 3008 3043 
3445 3406 3402 3049 3012 3047 3051 3449 3016 
3055 3414 3453 3454 3059 3060 3457 3458 3063 
3064 3461 3462 3067 3068 3072 3469 3466 3071 
3075 3070 3434 3473 3004 3040 3438 3085 3048 
3083 3442 3046 3052 3087 3056 3050 3091 3096 
3450 3493 3095 3099 3100 3497 3103 3104 3501 
3505 3107 3111 3108 3470 3509 3076 3080 3079 
3044 3441 3478 3125 3088 3123 3525 3482 3086 
3129 3092 3127 3529 3131 3136 3130 3135 3140 
3534 3537 3139 3143 3502 3541 3112 3145 3147 
3116 3117 3115 3120 3517 3119 3084 3159 3481 
3518 3521 3128 3163 3522 3132 3167 3569 3171 
3176 3530 3570 3174 3175 3179 3538 3142 3144 
3181 3148 3545 3542 3152 3151 3550 3155 3156 
3554 3124 3160 3158 3199 3557 3558 2801 2803 
3164 3201 3172 3168 2807 3205 2811 2815 3574 
3213 2817 3178 3180 3184 3581 3578 3183 3186 
3188 3187 3582 3190 3192 3191 3590 3589 3194 
3195 3196 3594 2837 2839 3200 3597 3237 3598 
3241 3202 3204 3243 3249 3208 3212 3206 3609 
3216 3215 3218 3220 3219 3224 3618 3617 3621 
3225 3228 3227 3626 3226 3232 3231 3630 3629 
3233 3236 3275 3634 3633 3277 3240 3279 3242 
3248 3244 3645 3642 3646 3247 3251 3252 3650 
3255 3256 3654 3653 3261 3259 3260 3657 3262 
3263 3268 3661 3662 3665 3269 3266 3267 3272 
3271 3669 3666 3670 3273 3276 3673 3315 3280 
3319 3717 3283 3282 3284 3288 3686 3287 3292 
3291 3290 3689 3297 3293 3295 3296 3694 3693 
3264 3258 3299 3304 3697 3303 3308 3307 3312 
3709 3706 3311 3316 3351 3753 3314 3355 3320 
3714 3718 3323 3328 3682 3329 3326 3327 3332 
3333 3294 3331 3335 3300 3733 3737 3337 3298 
3339 3344 3738 3741 3342 3343 3348 3745 3346 
3347 3352 3749 3393 3356 3391 3359 3360 3365 
3363 3368 3362 3765 3762 3330 3367 3371 3766 
3334 3373 3336 3375 3773 3338 3340 3379 3380 
3778 3383 3384 3785 3781 3782 3388 3387 3392 
3789 3790 3395 3396 3429 3793 3324 3361 3399 
3761 3403 3407 3404 3805 3409 3372 3411 3770 
3376 3415 3774 3813 3419 3420 3818 3817 3423 
3424 3821 3822 3427 3428 3432 3829 3431 3435 
3400 3833 3364 3398 3401 3439 3801 3837 3408 
3443 3845 3410 3412 3447 3849 3810 3451 3416 
3455 3853 3854 3459 3460 3858 3463 3464 3861 
3865 3465 3467 3471 3826 3830 3436 3475 3440 
3477 3479 3877 3838 3485 3448 3483 3842 3446 
3489 3452 3487 3889 3456 3491 3495 3850 3893 
3494 3499 3500 3897 3498 3468 3503 3901 3862 
3472 3511 3507 3870 3909 3513 3474 3476 3515 
3444 3480 3878 3488 3523 3882 3486 3492 3527 
3496 3490 3533 3531 3536 3930 3539 3535 3898 
3504 3508 3902 3506 3549 3512 3547 3510 3514 
3551 3516 3520 3484 3519 3881 3918 3561 3528 
3563 3565 3922 3961 3526 3532 3567 3573 3571 
3575 3934 3973 3540 3577 3544 3938 3543 3548 
3585 3985 3546 3552 3587 3946 3989 3553 3555 
3556 3954 3559 3524 3560 3599 3958 3997 3562 
3203 3564 3601 3962 3572 3568 3566 3207 3209 
3211 3576 3580 3579 3584 3978 3981 3223 3583 
3586 3588 3625 3982 3591 3592 3235 3593 3595 
3596 3239 3600 3602 3641 3608 3604 3610 3606 
3611 3607 13 3613 3614 3616 3615 21 17 
18 3620 3619 22 61 3622 3624 3628 3663 
26 65 30 3632 3631 33 3636 3635 3675 
77 38 3638 3677 3640 3679 45 3643 3647 
3612 50 3649 3652 3651 54 53 3655 3656 
3658 3659 3660 3699 62 101 3664 3668 69 
3667 3672 3671 3674 3676 3713 78 3715 41 
3678 3644 3680 3648 3685 3683 3687 3692 3691 
3690 3695 3696 3701 3700 3704 3705 3702 3703 
3708 109 106 3707 3712 114 110 3710 3711 
3716 3751 3681 3719 3720 125 3725 3688 3723 
3728 3726 3729 3727 3732 134 3731 3730 3735 
3736 138 3698 3739 3744 142 145 3742 3743 
3748 149 146 3746 3747 3752 153 157 3750 
3754 3755 3756 118 3721 3757 3684 3759 3722 
3763 3768 3769 3767 3772 173 3734 3771 3775 
178 3777 3740 3779 3780 181 182 3783 3784 
3788 3786 3787 3791 3760 3795 3797 158 3758 
3724 3799 205 202 3802 3803 3808 3804 206 
3809 3807 3811 174 213 3776 3815 3814 217 
3819 218 3820 221 225 3823 3824 190 3825 
3792 3827 3831 3794 3796 3835 3800 3764 3798 
3839 245 241 3841 3843 3844 3806 3812 3847 
3851 214 253 3816 3855 254 3857 3859 3860 
222 3828 3863 3832 3871 3869 273 234 3834 
3836 3873 3875 238 278 3840 3879 281 3885 
3848 3883 3846 3852 3887 3856 293 3891 3896 
297 3895 3894 3899 3864 3867 3868 3866 3872 
3911 3907 3874 3913 3876 3915 318 317 3917 
3880 3919 282 3925 3888 3923 3929 3886 3892 
3927 294 3890 3933 3931 3935 298 3937 3900 
3904 305 345 302 3905 3903 3908 3945 3949 
3906 3912 3947 3910 3914 3953 3916 3951 3955 
357 3921 3884 3920 3928 3963 326 3965 3926 
3969 3932 3967 3971 334 3936 3940 338 3939 
3944 3941 385 3943 3942 3948 389 346 3952 
3987 354 3950 3956 3991 3957 3959 3924 3960 
3999 3603 3964 3605 3966 3968 3972 373 3970 
3975 3976 3974 3977 3980 381 3979 3984 382 
25 3983 3623 3988 29 386 3990 3986 3627 
3992 390 394 3993 3994 3995 3996 398 37 
3637 3998 3639 4000 
type 1 4000 int
1 1 1 1 1 1 1 1 1 
1 1 1 1 1 1 1 1 1 
1 1 1 1 1 1 1 1 1 
1 1 1 1 1 1 1 1 1 
1 1 1 1 1 1 1 1 1 
1 1 1 1 1 1 1 1 1 
1 1 1 1 1 1 1 1 1 
1 1 1 1 1 1 1 1 1 
1 1 1 1 1 1 1 1 1 
1 1 1 1 1 1 1 1 1 
1 1 1 1 1 1 1 1 1 
1 1 1 1 1 1 1 1 1 
1 1 1 1 1 1 1 1 1 
1 1 1 1 1 1 1 1 1 
1 1 1 1 1 1 1 1 1 
1 1 1 1 1 1 1 1 1 
1 1 1 1 1 1 1 1 1 
1 1 1 1 1 1 1 1 1 
1 1 1 1 1 1 1 1 1 
1 1 1 1 1 1 1 1 1 
1 1 1 1 1 1 1 1 1 
1 1 1 1 1 1 1 1 1 
1 1 1 1 1 1 1 1 1 
1 1 1 1 1 1 1 1 1 
1 1 1 1 1 1 1 1 1 
1 1 1 1 1 1 1 1 1 
1 1 1 1 1 1 1 1 1 
1 1 1 1 1 1 1 1 1 
1 1 1 1 1 1 1 1 1 
1 1 1 1 1 1 1 1 1 
1 1 1 1 1 1 1 1 1 