# vtk DataFile Version 4.0
Generated by LAMMPS
ASCII
DATASET POLYDATA
POINTS 4000 float
4.75188 -0.345019 3.65367 6.74934 -1.07081 1.54265 4.57661 -2.42317 1.64581 
6.31824 -2.63634 3.78524 4.89898 -0.446122 40.9692 6.23969 -3.137 40.902 
10.5535 -1.70381 1.83508 8.5777 -1.19139 3.75678 11.0787 0.378271 3.70736 
8.24503 -3.34647 1.75473 10.231 44.1026 3.71765 10.8673 0.35898 -0.513141 
12.9195 -0.142057 1.60221 14.4165 -2.63735 1.6902 12.6052 -2.18492 3.82321 
14.6948 -0.454854 3.60094 12.4538 -2.07947 41.018 14.7025 -0.450651 -0.507729 
16.6683 -0.750478 1.61827 18.2015 -3.09704 1.79611 18.4506 -1.14475 3.71949 
20.1472 -3.54714 3.71102 16.287 -2.89155 3.70238 20.0006 -3.55311 41.0123 
16.2996 -2.72524 -0.437998 18.5679 -1.07205 41.0126 20.3993 -1.27625 1.7658 
24.3756 -1.98707 1.46027 22.3141 -1.79389 3.60795 24.3246 -0.0831584 3.72138 
22.6093 0.449235 1.63078 22.3164 -1.5454 41.177 28.1926 -2.73615 1.57291 
26.225 -0.104412 1.65063 28.4471 -0.674754 3.62444 26.1374 -2.24646 3.56119 
26.2495 -2.3317 40.7913 24.4998 0.0375142 40.9323 30.3997 -1.04216 1.63806 
32.2069 -1.33345 3.62978 30.0073 -2.98843 3.71159 29.7933 -3.07963 -0.466485 
32.3403 0.732228 1.46051 32.0296 -1.57119 -0.509025 36.372 -0.00232255 1.65876 
34.2243 -1.88263 1.31685 36.1976 -1.88321 3.54465 34.2376 0.371247 3.54487 
34.4471 0.238144 -0.618589 5.22261 1.3786 1.45357 7.29315 3.09573 1.55125 
6.92079 1.17251 3.61193 5.37962 3.47966 3.63174 5.40597 3.43232 41.0191 
7.096 1.10619 40.9526 8.99066 0.783883 1.68261 9.55033 4.58994 1.64819 
11.111 2.26891 1.72049 9.18546 2.64306 3.88838 11.5516 4.23058 3.81365 
9.16703 2.80561 40.8838 15.0762 1.64686 1.38172 13.1833 4.06258 1.68351 
13.2513 1.94588 3.6491 15.2177 3.86414 3.75976 15.3111 3.72481 -0.260084 
13.0229 1.89128 -0.352216 18.726 1.09736 1.70102 17.1878 3.50605 1.69527 
19.0732 3.00754 3.8105 16.7712 1.4072 3.85055 19.2086 5.1209 1.69349 
20.4976 0.764881 40.926 20.6473 0.657145 3.58035 20.9635 2.68336 1.62694 
23.0755 4.55701 1.66708 22.9226 2.47098 3.78844 21.155 4.74185 3.6527 
22.846 2.26532 40.833 21.2524 4.7056 -0.438021 24.6749 2.2193 1.62727 
26.8257 3.82952 1.60724 28.5078 1.32645 1.58368 24.9049 4.37376 3.68614 
26.4706 1.8392 3.81844 26.6931 1.67306 40.7749 25.0894 4.04893 40.8999 
30.5224 0.983117 3.58431 30.5649 3.11503 1.82285 28.7219 3.34785 3.52311 
32.7233 2.83142 3.40734 33.0616 4.61285 1.33588 31.1534 5.07818 3.73306 
32.4407 2.57213 40.8222 28.708 3.61048 -0.277322 30.9929 4.96886 -0.395083 
36.9324 3.71502 1.72274 34.5174 2.30144 1.34107 36.634 1.92104 3.72327 
35.0677 4.30274 3.66887 35.0178 4.32065 -0.461124 7.44057 5.06299 3.71808 
5.56431 5.54717 1.65868 3.8906 7.90104 1.80306 5.96977 7.60823 3.81678 
7.84035 7.15625 1.71158 8.18483 9.20168 3.85433 11.5116 6.38921 1.66218 
10.0054 8.97105 1.71183 9.76868 6.63624 3.6879 9.7718 6.75747 -0.401145 
11.906 8.50827 3.77494 11.6944 8.49524 -0.400105 15.4519 5.8774 1.5504 
13.83 8.33807 1.68388 13.6031 6.20059 3.83835 15.7366 7.67714 3.73668 
17.5663 7.46431 1.69151 19.6357 9.3515 1.56964 17.4099 5.37856 3.71005 
19.5846 7.22893 3.68149 17.8073 9.55757 3.65159 21.4055 6.85424 1.6549 
23.5915 8.71946 1.38816 23.1979 6.59704 3.61285 21.5129 9.02727 3.7381 
21.5256 8.80432 40.7515 25.2766 6.14684 1.39782 27.3271 6.02413 3.88935 
27.3545 7.85292 1.69104 25.4357 8.19962 3.4827 27.0721 5.83352 40.8338 
25.5694 8.0785 -0.539797 31.3762 7.17904 1.54813 28.979 5.65759 1.63869 
31.5243 9.19781 3.61918 29.4405 7.54896 3.92997 29.6793 9.44454 1.41157 
31.7868 8.92724 -0.529289 37.3275 5.86827 3.72154 35.3454 6.15525 1.58286 
33.5459 8.63788 1.60648 33.4143 6.59061 3.5043 35.5836 8.24363 3.62586 
37.3739 5.91007 40.8264 35.5485 8.34578 -0.42363 6.26205 9.39432 1.69881 
4.71759 11.6685 1.73513 4.21045 9.96683 3.74185 6.43006 11.6413 3.76034 
4.19344 9.81679 -0.390486 8.12982 11.2586 1.83091 10.5123 12.8774 1.70048 
8.42777 13.3504 3.70757 10.437 10.9342 3.67439 12.2456 10.6985 1.58626 
14.3417 12.3391 1.68431 13.9999 10.2894 3.73145 15.9808 9.84768 1.59044 
12.4538 12.7155 3.75295 16.0903 12.0686 -0.322747 16.0863 12.0064 3.7655 
17.9512 11.8032 1.62306 19.7514 11.4205 3.69461 18.3143 13.7748 3.74681 
20.2031 13.4824 1.51906 18.2284 13.7227 40.8913 21.7828 10.8839 1.56081 
23.7332 10.6171 3.45021 23.9771 12.6291 1.4293 22.1213 13.038 3.63976 
22.0313 12.9357 -0.54924 25.6834 10.3502 1.65184 27.817 11.8664 1.62819 
25.9085 12.3137 3.8469 27.6611 9.82557 3.56861 27.575 9.87939 -0.485572 
25.9432 12.212 40.7411 31.7304 11.0117 1.59416 30.0203 13.526 1.597 
29.7944 11.6352 3.64266 32.174 13.0135 3.63589 29.6865 11.5677 -0.448379 
35.8099 10.4676 1.81044 34.0458 12.6529 1.58579 33.9819 10.5731 3.75214 
36.1037 12.2819 3.7532 33.7975 10.6968 -0.356597 6.65505 13.808 1.62897 
4.58693 13.9781 3.77605 4.81815 16.0446 1.56067 7.03556 17.7709 1.62479 
6.86927 15.7988 3.80639 8.6219 15.4795 1.62329 10.7392 17.327 1.82962 
10.7912 15.0753 3.68869 9.09829 17.3593 3.8712 12.5708 14.8718 1.83229 
14.8503 16.4655 1.71719 14.5083 14.5428 3.7307 12.6666 16.9565 3.7633 
14.363 14.4732 41.1087 16.3025 14.0768 1.73515 18.5225 15.7302 1.64294 
18.7239 17.9229 3.95677 16.4787 16.1817 3.73572 16.8437 18.2533 1.56334 
18.5992 17.5348 40.8918 16.5857 15.9252 41.0966 22.2657 15.3525 1.69867 
20.4209 17.4178 1.53736 20.4651 15.5437 3.78284 22.5354 17.2046 3.83321 
24.2232 14.6247 3.791 20.4443 15.321 40.8665 22.4788 16.971 40.9062 
24.7985 16.4948 1.72761 28.2915 13.9186 3.80195 26.2681 14.1147 1.70497 
26.4258 16.0932 3.82639 28.3593 15.9085 1.68442 28.7528 17.8894 3.78107 
28.1253 13.8779 -0.353522 26.4888 16.1797 40.935 32.2966 14.8834 1.58983 
30.6555 17.6238 1.6338 32.5241 16.9988 -0.392183 30.4143 15.5074 3.70231 
32.8328 16.943 3.74216 30.4069 15.3218 41.0002 36.3465 14.1336 1.57695 
34.6488 16.549 1.73677 36.3403 16.6312 3.81664 34.4666 14.6122 3.76651 
5.1602 20.2507 1.6645 7.27047 19.7746 3.70988 5.56568 22.2347 3.72901 
7.35359 21.9271 1.70729 4.98805 17.9985 3.51147 7.08855 19.7887 -0.487698 
9.12687 19.4789 1.66049 11.3124 21.3062 1.52182 11.1339 19.2384 3.75434 
9.44314 21.5619 3.73163 9.2528 21.6008 -0.309908 12.9935 18.8408 1.6008 
15.0794 20.3653 1.72772 14.8945 18.6018 3.80714 13.0989 21.1286 3.71603 
14.9263 18.5502 -0.383372 15.3641 22.5712 3.72462 18.9391 20.0072 1.68005 
19.0597 21.9229 3.85125 17.0747 22.1858 1.76355 16.9779 20.1647 3.70863 
22.8146 18.8561 1.62005 20.8741 19.4993 3.73499 21.2475 21.1694 1.59903 
23.1645 21.0303 3.76352 20.7904 19.4008 40.8912 26.8475 18.3444 1.56996 
24.9709 20.7302 1.59223 27.2959 22.4738 1.65853 24.9611 18.6233 3.43387 
27.008 20.1892 3.6211 26.9179 20.2155 40.8631 28.8792 20.0217 1.48571 
30.7482 19.5083 -0.545834 31.2851 21.433 1.50732 32.991 19.0488 1.65017 
31.0567 19.3835 3.85748 29.2557 21.9393 3.66938 33.1736 21.0696 3.77888 
36.532 18.3291 1.76025 34.9353 20.9276 1.73847 36.9466 20.4969 3.7081 
34.7209 18.8329 4.0744 33.196 21.072 -0.43374 5.78164 24.1109 1.72558 
5.97609 26.3116 3.82507 7.64245 23.9184 40.8114 3.64138 24.6889 3.76062 
4.06612 26.7108 1.83005 3.72729 24.7167 41.0048 7.68436 23.7956 3.66157 
3.47702 22.5967 1.7868 5.91329 26.3011 41.1049 7.77186 26.0796 1.80551 
9.29759 23.7153 1.63414 11.4509 23.3765 3.84163 11.6081 25.3609 1.69159 
9.72839 25.7419 3.83958 9.55399 25.9721 -0.462116 13.314 22.9976 1.56284 
15.5753 24.5352 1.6604 13.6264 25.1474 3.74681 13.8474 26.947 1.71172 
15.878 26.5532 3.63856 17.7359 26.2855 1.60575 19.5403 23.5645 1.73258 
17.5083 24.0408 3.61098 19.6938 25.8316 3.75023 23.3653 23.0248 1.75409 
21.7284 25.2718 1.71049 21.3255 23.4094 3.90244 23.6739 25.2907 3.74646 
25.3277 22.6148 3.66301 25.4315 24.7612 1.57838 27.7556 26.1843 1.35314 
27.4891 24.2406 3.83547 25.8949 26.824 3.72555 29.6275 23.8905 1.51145 
31.5044 25.7115 1.70883 31.4016 23.5191 3.63634 29.4236 26.1994 3.64519 
29.6752 26.1922 -0.46807 33.1089 23.3466 1.72279 35.3097 25.0405 1.80611 
35.0194 22.9375 3.79377 33.3558 25.3243 3.82702 34.9182 23.1464 -0.196559 
33.2863 25.5448 41.1865 6.2012 28.5132 1.74541 4.44507 30.7453 1.70111 
4.23082 28.9825 3.71815 6.39989 30.7485 3.75094 6.51032 30.4539 41.1687 
4.30137 28.6702 40.9671 7.89384 28.1709 3.69444 10.0727 27.9039 1.82697 
8.44232 30.2999 1.77578 10.2991 29.8237 3.88342 8.01293 28.1025 41.0639 
11.8914 27.5206 3.76962 12.2496 29.4876 1.50255 16.0772 28.766 1.57672 
14.1083 29.088 3.52798 14.3968 31.2936 1.68644 12.4597 31.6356 3.87861 
18.449 30.3882 1.63974 19.877 27.9862 1.71661 16.5414 30.7752 3.64573 
18.1352 28.3913 3.5724 20.2984 29.9241 3.86945 20.3305 30.0219 -0.329021 
18.1058 28.4978 -0.531164 23.6934 27.1272 1.61846 22.021 29.5201 1.66139 
24.2008 29.2848 3.7842 21.9341 27.6337 3.81295 24.3123 31.1964 1.71212 
26.2274 28.6213 1.60327 27.9135 28.5243 40.8581 28.1456 30.6575 1.63265 
27.9629 28.4273 3.60636 26.401 30.9205 3.61953 29.8632 28.1229 1.57765 
32.139 29.8118 1.69625 31.6585 27.859 3.75886 30.1407 30.3239 3.59183 
30.0801 30.2509 41.0644 33.6702 27.5253 1.89938 35.8395 28.9832 1.68933 
35.5972 26.9841 3.87872 34.0094 29.4616 3.70524 36.0869 31.1832 40.9291 
34.4439 31.5219 1.57052 36.1897 31.1837 3.726 35.4535 27.0718 41.0649 
6.78152 32.6099 1.64605 4.91256 35.0855 1.68454 4.81311 33.0838 3.6905 
6.84151 34.7016 3.60633 4.78872 32.762 41.0407 10.6941 31.9001 1.75332 
9.13345 34.2865 1.7735 8.72001 32.3585 3.66183 10.9064 33.9123 4.0669 
12.738 33.5001 1.74761 14.9038 35.253 1.64001 12.9885 35.6955 3.68689 
14.8905 33.2824 3.78806 16.6383 32.6732 1.64055 18.9527 34.3825 1.63002 
17.1389 34.6962 3.67822 18.7207 32.3193 3.86169 18.6674 32.4142 -0.535327 
22.3871 31.551 3.91792 22.5453 31.6888 41.107 20.6425 32.0378 1.70571 
22.7559 33.4523 1.82112 20.9272 33.8545 3.77378 26.5334 33.108 1.70836 
24.6685 33.2392 41.0052 24.8657 35.2046 1.52415 28.4087 32.6689 3.71967 
24.6044 33.1359 3.82374 26.7777 35.007 3.68701 28.4529 32.521 40.9492 
28.6886 34.6132 1.66454 30.4236 32.231 1.57517 32.2267 31.7422 40.9422 
30.6132 34.4772 3.64778 32.6418 33.9243 1.59503 32.3732 32.0524 3.6572 
[...]
POINT_DATA 4000
FIELD FieldData 6
id 1 4000 int
405 7 3 766 2 5 11 409 410 
372 770 10 16 15 413 414 13 14 
20 19 418 421 417 21 17 18 24 
28 422 465 63 22 32 67 469 426 
26 65 36 434 430 33 75 34 4 
40 401 438 77 8 47 406 445 45 
6 12 52 51 449 450 49 55 56 
453 454 54 53 59 60 458 457 99 
61 461 64 103 462 501 62 101 68 
72 71 505 466 69 66 473 76 470 
477 80 474 74 70 113 43 79 402 
441 78 446 48 83 485 87 486 91 
92 489 89 490 90 95 96 493 494 
100 139 497 498 537 104 108 502 541 
102 107 509 112 506 109 106 115 111 
517 513 116 114 442 44 119 478 481 
42 81 88 123 482 525 82 127 132 
526 529 131 136 533 135 530 134 534 
140 538 577 144 138 143 545 148 542 
142 147 151 549 510 149 146 120 155 
514 557 153 84 159 518 521 118 128 
522 163 168 565 167 172 569 566 171 
176 573 570 173 175 179 578 574 180 
178 177 183 184 581 585 546 181 182 
187 553 152 550 156 593 150 189 160 
195 197 554 597 154 124 199 561 558 
203 605 602 208 562 205 207 212 609 
606 206 211 215 613 610 174 614 219 
621 220 617 188 582 223 586 221 191 
192 231 589 590 190 196 194 235 200 
594 633 637 164 239 601 598 237 243 
642 245 641 244 241 645 204 242 248 
247 649 251 646 249 216 255 653 256 
657 259 224 618 622 227 228 625 626 
629 232 271 630 669 236 275 634 673 
273 240 279 638 677 238 277 283 284 
681 682 285 281 685 252 287 689 246 
650 291 260 654 295 693 264 263 658 
661 662 262 258 267 268 666 665 307 
272 270 311 670 709 276 315 674 713 
313 280 319 678 717 318 320 718 278 
288 323 721 725 282 292 327 686 690 
296 300 694 697 299 304 698 701 301 
705 305 303 308 702 312 306 347 710 
706 749 310 351 316 314 753 355 714 
353 359 757 758 360 328 363 722 761 
726 365 324 331 332 729 733 330 326 
335 340 734 737 334 337 339 344 738 
741 345 745 343 348 742 785 352 389 
387 746 789 356 391 350 750 793 754 
354 395 797 399 358 794 397 368 364 
762 765 367 362 336 730 371 769 773 
370 366 375 376 774 777 380 379 384 
778 781 23 383 388 382 782 425 25 
27 392 429 786 29 35 31 396 790 
433 390 394 437 39 400 798 398 37 
407 768 805 1166 411 810 809 772 1170 
416 415 814 813 420 419 817 821 818 
424 463 822 428 865 861 423 432 467 
869 826 471 830 873 475 870 403 440 
801 838 806 408 447 845 412 451 849 
452 850 455 456 853 854 459 460 857 
858 464 503 901 862 468 507 905 866 
472 476 909 877 479 874 443 404 841 
802 846 448 885 487 886 492 491 890 
889 495 496 894 893 499 897 500 898 
539 941 504 543 902 508 512 906 945 
511 480 917 913 515 483 842 444 519 
878 881 488 882 523 925 527 532 926 
929 531 535 536 933 930 934 937 540 
579 938 977 575 544 548 942 981 516 
547 910 949 520 555 957 914 484 918 
559 921 528 922 563 965 568 962 567 
572 969 966 571 576 973 970 580 974 
1017 615 583 584 978 946 985 552 551 
953 950 556 993 560 595 954 997 524 
599 958 961 603 1005 1002 608 607 612 
1006 1009 611 1010 616 1013 651 1053 619 
620 1014 1021 588 587 986 982 591 989 
592 631 990 596 635 994 1033 600 1001 
564 639 998 1037 643 1041 1042 644 1045 
647 648 1049 652 1046 655 1050 1057 656 
623 624 1022 1018 627 628 1025 1026 1029 
632 1030 671 1069 636 675 1034 1073 604 
640 679 1038 1077 683 684 1081 1082 687 
688 1085 1086 1089 691 660 1054 659 664 
1061 1058 663 1062 667 1065 668 1066 672 
1109 1070 711 676 715 1113 1074 680 719 
1078 1117 1118 720 723 724 1121 1122 692 
727 1125 1090 695 700 1097 1093 1094 699 
704 1098 1101 707 703 708 1102 1105 1145 
712 1106 747 1149 1110 751 716 1153 1114 
755 759 1157 1158 728 763 1161 1126 1198 
799 696 731 1133 1129 735 1137 740 1134 
739 744 1141 1138 743 748 1142 1185 752 
1146 787 1189 756 791 1150 1193 1154 795 
760 800 1197 767 764 732 1162 1165 736 
1130 1169 771 1173 776 775 1174 1177 780 
779 1178 784 1181 783 788 1182 825 427 
792 829 1186 436 431 796 1190 833 834 
439 435 1194 837 803 807 1202 1205 811 
1210 1209 1172 1570 816 815 1213 1214 820 
819 1218 1217 1221 824 828 863 1222 1261 
1265 832 867 1226 1269 871 1230 1234 875 
840 804 1238 1277 1206 808 847 1245 812 
851 852 1249 1250 855 856 1254 1253 859 
860 1257 1258 899 864 903 1262 1301 868 
907 1266 1305 872 876 1270 1273 1313 1274 
880 843 879 1241 1278 1246 848 883 1285 
887 1286 891 892 1289 1290 1293 895 896 
1294 1297 900 939 1298 904 943 1302 1341 
908 912 1309 1306 911 915 1310 1314 916 
1242 844 919 1281 1317 888 923 928 1325 
1282 927 932 1326 1329 931 935 1330 936 
1333 1334 940 979 1337 1338 1377 944 948 
1345 1342 947 951 1349 1346 920 955 1357 
1353 884 1318 959 1321 1322 963 1365 968 
1369 967 972 1366 971 976 1370 1373 975 
980 1374 1378 1015 1381 983 984 1382 1385 
1350 987 952 956 1389 1393 960 1354 995 
1397 924 1361 999 1358 1362 1003 1405 1402 
1008 1007 1012 1406 1409 1011 1016 1410 1413 
1414 1019 1020 1417 1418 988 1023 1421 1425 
991 992 1390 1031 1386 996 1035 1394 1433 
1000 1437 1401 964 1039 1398 1043 1044 1441 
1442 1445 1004 1047 1048 1449 1446 1052 1055 
1051 1453 1454 1056 1024 1059 1457 1461 1027 
1028 1426 1422 1429 1032 1071 1430 1036 1075 
1473 1434 1040 1079 1438 1477 1083 1084 1481 
1482 1087 1088 1485 1489 1450 1091 1095 1493 
1060 1064 1063 1458 1497 1462 1067 1465 1068 
1466 1469 1072 1470 1509 1111 1076 1115 1513 
1474 1080 1119 1517 1478 1518 1123 1124 1521 
1525 1092 1127 1486 1529 1096 1100 1533 1494 
1490 1099 1498 1501 1104 1107 1505 1103 1108 
1502 1506 1112 1147 1549 1510 1151 1116 1553 
1155 1514 1120 1159 1160 1557 1558 1128 1163 
1565 1522 1561 1199 1131 1132 1136 1530 1526 
1135 1534 1140 1537 1139 1144 1538 1541 1545 
1143 1148 1542 1585 1152 1589 1187 1546 1550 
1156 1191 1593 1554 1195 1200 1597 1168 1164 
1201 1562 1167 1171 1573 1566 1569 1176 1175 
1574 1180 1577 1179 1184 1581 1578 1183 823 
1188 1225 1582 827 1192 1586 1229 836 831 
1196 1233 1590 1237 839 835 1594 1598 1208 
1204 1641 1602 1610 1207 1211 1606 1609 1216 
1215 1614 1613 1220 1219 1618 1617 1621 1224 
1228 1263 1661 1622 1665 1267 1232 1630 1626 
1236 1235 1634 1633 1240 1279 1677 1638 1247 
1243 1642 1645 1646 1212 1649 1251 1252 1650 
1653 1255 1256 1654 1259 1260 1658 1657 1264 
1303 1701 1662 1271 1268 1272 1669 1666 1670 
1275 1276 1673 1674 1315 1244 1280 1717 1678 
1248 1283 1685 1681 1287 1291 1689 1292 1686 
1690 1295 1296 1694 1693 1299 1697 1300 1339 
1698 1304 1308 1705 1702 1307 1312 1709 1706 
1311 1316 1713 1710 1753 1319 1320 1714 1718 
1288 1682 1323 1725 1729 1327 1332 1726 1331 
1727 1732 1730 1336 1733 1335 1734 1737 1340 
1344 1741 1738 1343 1348 1745 1742 1347 1352 
1749 1746 1351 1355 1356 1750 1754 1284 1721 
1359 1757 1328 1363 1368 1722 1765 1367 1769 
1372 1766 1371 1376 1773 1770 1375 1379 1778 
1380 1777 1740 1781 1384 1383 1785 1782 1388 
1789 1387 1391 1786 1360 1395 1797 1793 1790 
1324 1758 1399 1761 1762 1403 1805 1802 1408 
1407 1412 1806 1809 1411 1415 1813 1774 1814 
1419 1420 1817 1818 1423 1424 1821 1822 1392 
1427 1431 1825 1829 1396 1794 1435 1833 1400 
1364 1801 1798 1439 1837 1443 1444 1842 1841 
1845 1451 1447 1448 1810 1849 1851 1416 1455 
1853 1854 1459 1460 1857 1858 1428 1463 1861 
1865 1826 1432 1830 1471 1869 1436 1475 1873 
1834 1836 1404 1440 1479 1838 1877 1483 1484 
1881 1885 1452 1487 1846 1889 1456 1491 1850 
1893 1496 1495 1464 1499 1894 1897 1901 1467 
1468 1866 1862 1507 1472 1870 1511 1909 1476 
1874 1913 1515 1480 1519 1878 1918 1917 1488 
1523 1882 1925 1492 1527 1929 1886 1890 1531 
1535 1933 1930 1500 1504 1898 1937 1905 1503 
1508 1902 1906 1512 1547 1949 1910 1947 1516 
1555 1914 1551 1953 1520 1559 1957 1921 1560 
1528 1563 1922 1965 1961 1532 1567 1571 1926 
1969 1536 1540 1934 1973 1539 1941 1544 1938 
1944 1945 1543 1548 1942 1985 1946 1552 1587 
1989 1952 1950 1556 1591 1993 1991 1954 1524 
1595 1599 1958 1203 1564 1962 1601 1568 1572 
1605 1966 1970 1575 1576 1974 1977 1580 1579 
1978 1584 1981 1583 1223 1588 1625 1982 1227 
1592 1629 1986 1231 1596 1994 1990 1997 1239 
1600 1998 1637 1604 1643 2041 2002 2043 2004 
1608 1612 2045 2008 2047 2049 1647 1616 2014 
1615 2010 2016 2051 2017 1620 1619 2018 2021 
2020 2019 1624 1628 1663 2022 2024 2028 2027 
2026 1623 1632 1631 2030 2029 2032 2031 1636 
1635 2033 2034 2035 2036 1640 1679 2038 2077 
2040 2079 2042 1648 1644 2044 2083 2081 2048 
1651 1652 2050 2046 2052 2087 1655 1656 2053 
2054 2055 2056 1660 1659 2059 2057 2058 2060 
2061 1664 1668 2065 2062 2063 2068 1667 1671 
1672 2069 2066 2067 2072 2071 1675 2075 2070 
1676 2073 2074 2076 2115 2119 1715 1680 1719 
2078 2117 2080 2085 1683 1684 2082 2084 2118 
2159 1687 2088 2089 1692 2086 1691 2091 2092 
2090 1695 1696 2093 2094 2095 2096 1699 2064 
1700 1704 2097 2101 2099 2104 1703 1708 2105 
2102 2103 2108 1707 1712 2109 2106 2107 2112 
2113 2111 1711 1716 2110 2116 2153 1720 1755 
2114 2120 2157 2155 2123 1688 1723 2125 2121 
2128 2124 2129 2126 2127 2132 1731 2131 2133 
1736 2130 2135 1735 2100 2137 1739 2098 1744 
2141 2139 2144 1743 1748 2145 2142 2143 2148 
1747 1752 2149 2146 2147 2152 2151 1751 1756 
1791 2150 2156 2193 2191 1759 1760 2158 2154 
2160 2195 1728 2122 2165 1763 1768 2168 2163 
1767 2169 1772 2166 2167 2171 1771 1775 2134 
2173 2136 2175 2138 2140 1779 2177 2178 1780 
2181 1783 1784 2184 2185 2183 2182 2189 2188 
1788 1787 1792 2187 2186 2229 1795 1796 2190 
2196 2194 2231 1724 1799 2161 2199 2197 2200 
2162 2205 1803 1808 2202 2207 2203 1804 1807 
1811 2170 2172 2209 2211 1776 1815 2213 2174 
2176 2215 2180 1819 1820 2218 2217 2219 2220 
1823 1824 2221 2222 2223 2224 1827 2227 1828 
1832 2225 2228 2226 2267 1831 1835 2232 2233 
2230 2236 1800 2235 2201 1764 2198 2237 1839 
2164 2239 2204 1843 1844 2241 2208 2245 2243 
2206 1847 1812 2210 2249 2212 2251 2247 1816 
1855 2214 2253 2254 2216 2255 1859 1860 2257 
2258 2259 2260 1863 1864 2261 2263 2264 2262 
1867 1871 2265 2269 2272 2268 2234 1875 2273 
2271 2275 1840 2238 2277 1879 2240 2279 1848 
1883 2285 2242 2283 2248 1852 1887 2246 2289 
2252 2287 2250 1856 1891 1896 2293 2291 2256 
2296 2295 1899 1895 1900 2294 2297 2300 2299 
1868 1903 2301 2298 2303 2305 2304 1907 2308 
2266 1872 2270 2309 1911 2311 2307 1876 2274 
1915 2313 2276 2315 2278 1880 1919 2317 2244 
2280 2281 1888 1923 2325 2282 2288 2323 1892 
1927 2329 2286 2292 2327 2290 1931 1936 2333 
2331 2336 2330 1935 1939 2335 2337 2334 2340 
1904 1908 2339 2302 2341 2343 1912 2306 2349 
2310 2312 2347 1951 2351 1916 1955 2314 2353 
2316 2320 1884 1920 2321 2318 2284 1959 2319 
1928 1963 2365 2322 2328 2363 2361 1924 2324 
1932 1967 1972 2326 2332 2369 2367 2372 1975 
1971 2373 2370 2371 2376 1940 2338 2377 2375 
2379 1943 2345 1948 2342 2344 2348 2346 1987 
2389 2352 2387 1956 2350 2354 2355 2356 2357 
2359 1960 1999 2358 2399 2360 1603 1964 2362 
2001 2003 2364 1968 2006 2005 1607 2366 2368 
2007 1611 2009 1976 2012 2013 2011 1980 2015 
2374 1979 2381 1984 2378 2380 2384 2385 1983 
1988 2382 2025 2383 2023 2388 1627 1992 2386 
2390 2392 2391 1995 1996 2393 2394 2395 2396 
2397 1639 2000 2398 2037 2039 2400 2402 2441 
2404 2443 2445 2408 2447 2446 2449 2451 2452 
2453 2414 2418 2420 2419 2421 2423 2425 2428 
2427 2426 2429 2430 2432 2431 2434 2433 2436 
2435 2475 2477 2438 2440 2479 2481 2442 2444 
2483 2519 2448 2485 2487 2489 2488 2454 2450 
2455 2456 2424 2461 2457 2459 2422 2465 2462 
2463 2468 2469 2466 2467 2472 2471 2470 2473 
2474 2476 2515 2517 2478 2480 2482 2521 2484 
2518 2559 2525 2523 2486 2492 2491 2490 2493 
2497 2460 2495 2464 2458 2501 2499 2504 2502 
2505 2503 2508 2509 2506 2507 2512 2513 2510 
2511 2516 2553 2514 2555 2520 2557 2524 2522 
2558 2599 2528 2526 2529 2527 2531 2533 2494 
2496 2535 2537 2500 2498 2541 2539 2544 2538 
2545 2542 2543 2548 2546 2549 2547 2552 2551 
2593 2550 2556 2591 2554 2597 2595 2560 2561 
2565 2563 2567 2569 2530 2532 2571 2534 2573 
2536 2575 2179 2540 2577 2578 2579 2581 2585 
2582 2584 2583 2588 2192 2589 2587 2586 2592 
2627 2629 2633 2590 2596 2631 2598 2594 2635 
2600 2562 2566 2605 2568 2607 2570 2609 2572 
2611 2613 2574 2576 2615 2580 2617 2618 2619 
2620 2621 2623 2624 2622 2625 2626 2628 2667 
2630 2632 2636 2669 2671 2637 2634 2601 2564 
2639 2602 2603 2645 2608 2643 2606 2610 2649 
2612 2647 2651 2614 2653 2654 2616 2655 2658 
2657 2659 2660 2661 2663 2664 2662 2666 2665 
2668 2707 2705 2673 2670 2675 2672 2638 2677 
2604 2640 2685 2642 2648 2683 2646 2689 2652 
2687 2656 2650 2693 2691 2696 2695 2694 2697 
2700 2699 2701 2698 2703 2704 2702 2706 2709 
2711 2708 2713 2674 2676 2680 2681 2641 2678 
2679 2644 2682 2725 2688 2723 2729 2686 2692 
2727 2733 2690 2731 2736 2730 2734 2735 2737 
2740 2739 2738 2741 2744 2743 2745 2749 2710 
2712 2747 2714 2716 2717 2715 2720 2718 2719 
2721 2684 2722 2728 2763 2761 2724 2765 2726 
2769 2732 2767 2772 2773 2771 2776 2770 2777 
2774 2775 2780 2742 2785 2781 2779 2748 2750 
2746 2752 2751 2753 2754 2755 2756 2759 2757 
2758 2760 2799 2762 2401 2403 2764 2406 2405 
2766 2768 2407 2409 2410 2413 2412 2411 2416 
2417 2778 2415 2784 2783 2786 2782 2788 2787 
2789 2790 2792 2791 2794 2793 2795 2796 2797 
2437 2798 2439 2800 2841 2802 2804 2843 2846 
2845 2808 2847 2849 2853 2851 2816 3182 2821 
2814 2820 2819 2825 2828 2823 2827 2826 2830 
2829 2832 2831 2834 2833 2836 2835 2877 2838 
2840 2879 2881 2842 2844 2883 2885 2848 2852 
2887 2893 2850 2857 2856 2855 2861 2824 2818 
2859 2822 2862 2865 2863 2868 2866 2869 2871 
2867 2872 2875 2870 2873 2876 2913 2874 2917 
2915 2878 2880 2919 2882 2918 2921 2884 2959 
2888 2889 2886 2891 2892 2890 2897 2854 2860 
2895 2864 2858 2901 2899 2904 2905 2902 2903 
2908 2909 2906 2907 2912 2953 2910 2911 2916 
2914 2957 2955 2920 2923 2958 2925 2924 2928 
2926 2929 2927 2931 2894 2896 2933 2900 2935 
2937 2898 2941 2939 2944 2938 2945 2942 2943 
2948 2949 2946 2947 2952 2950 2993 2951 2956 
2991 2954 2997 2995 2960 2922 2965 2963 2967 
2930 2969 2932 2971 2934 2973 2936 2975 2977 
2978 2940 2979 2980 2981 2985 2982 2983 2984 
2989 2988 2986 2987 2992 3029 3033 2990 2996 
3031 2994 2999 2998 3000 2961 2966 3005 2968 
3007 2962 3003 2970 3009 2972 3011 2974 3013 
2976 3015 3017 3018 3019 3020 3021 3022 3023 
3024 3025 3026 3027 3028 3067 3069 3030 3032 
3036 3035 2964 3037 3039 3034 3045 3002 3008 
3043 3006 3010 3049 3012 3047 3051 3014 3053 
3054 3016 3055 3056 3057 3058 3059 3060 3062 
3061 3063 3064 3066 3065 3068 3072 3105 3071 
3073 3075 3070 3001 3038 3004 3040 3085 3042 
3048 3083 3089 3046 3052 3087 3050 3093 3091 
3096 3094 3095 3097 3099 3100 3098 3101 3102 
3103 3104 3109 3107 3111 3106 3074 3076 3077 
3080 3041 3078 3079 3044 3082 3125 3088 3123 
3086 3129 3092 3127 3090 3133 3131 3136 3130 
3134 3137 3135 3140 3138 3139 3141 3143 3108 
3110 3112 3145 3113 3147 3116 3117 3114 3115 
3120 3081 3121 3118 3119 3084 3122 3128 3163 
3161 3165 3132 3126 3169 3167 3173 3170 3171 
3176 3172 3177 3174 3175 3179 3142 3144 3181 
3146 3148 3149 3150 3152 3151 3153 3154 3155 
3156 3159 3124 3157 3160 3158 3199 2801 3162 
2803 3164 2806 3166 2805 3168 2807 2809 2810 
2813 2812 2811 2815 2817 3178 3180 3184 3183 
3186 3185 3188 3187 3189 3190 3192 3191 3193 
3194 3195 3196 3197 2837 3198 2839 3200 3241 
3202 3204 3243 3245 3249 3208 3212 3210 3214 
3216 3215 3221 3217 3218 3220 3219 3225 3224 
3228 3227 3226 3222 3223 3230 3229 3232 3231 
3234 3233 3236 3275 3238 3277 3240 3279 3242 
3281 3248 3244 3247 3246 3251 3252 3250 3254 
3255 3253 3256 3257 3261 3259 3260 3264 3262 
3265 3263 3268 3269 3266 3267 3272 3271 3273 
3270 3274 3313 3276 3315 3278 3317 3280 3319 
3318 3285 3283 3282 3284 3287 3286 3289 3292 
3291 3290 3297 3293 3295 3296 3258 3301 3299 
3304 3302 3305 3303 3308 3309 3306 3307 3312 
3353 3310 3311 3316 3314 3357 3355 3320 3288 
3325 3321 3323 3328 3329 3326 3327 3332 3333 
3294 3331 3335 3300 3337 3298 3341 3339 3344 
3345 3342 3343 3348 3349 3346 3347 3352 3393 
3350 3351 3356 3391 3354 3359 3358 3360 3322 
3365 3363 3368 3330 3367 3371 3369 3334 3373 
3336 3375 3338 3377 3378 3340 3379 3380 3382 
3381 3383 3384 3385 3388 3389 3386 3387 3392 
3390 3395 3396 3394 3429 3324 3397 3361 3399 
3362 3366 3405 3403 3407 3370 3409 3372 3411 
3374 3413 3376 3415 3417 3418 3419 3420 3421 
3422 3423 3424 3425 3426 3427 3428 3432 3433 
3431 3430 3435 3400 3364 3398 3437 3401 3439 
3445 3406 3402 3408 3443 3410 3449 3412 3447 
3414 3451 3453 3454 3416 3455 3457 3458 3459 
3460 3461 3462 3463 3464 3465 3469 3467 3471 
3466 3434 3436 3475 3473 3404 3438 3440 3477 
3479 3442 3485 3448 3483 3446 3489 3452 3487 
3456 3450 3493 3491 3496 3495 3494 3497 3499 
3500 3498 3501 3468 3503 3505 3470 3472 3509 
3511 3507 3513 3474 3476 3515 3441 3481 3478 
3444 3480 3525 3482 3488 3523 3486 3529 3492 
3527 3490 3533 3531 3536 3530 3534 3537 3539 
3535 3502 3541 3504 3508 3545 3506 3549 3512 
3547 3510 3517 3514 3551 3516 3520 3518 3521 
3484 3519 3559 3522 3561 3528 3563 3565 3569 
3526 3532 3567 3572 3573 3570 3571 3575 3538 
3540 3577 3544 3542 3543 3548 3585 3583 3550 
3546 3552 3587 3554 3553 3555 3556 3557 3558 
3524 3560 3599 3597 3201 3562 3203 3564 3568 
3206 3205 3566 3207 3209 3574 3213 3211 3576 
3580 3581 3579 3578 3584 3586 3582 3588 3590 
3589 3591 3592 3235 3594 3593 3595 3596 3237 
3598 3239 3600 3602 3641 3608 3604 9 3610 
3606 3611 3607 3609 3613 3614 3616 3615 3618 
3617 3620 3619 3621 3622 3624 3628 3663 3661 
30 3626 3630 3629 3632 3631 3634 3633 3636 
3635 3675 38 3638 3677 3640 3679 3645 3642 
3643 3647 3612 3650 50 3649 3652 3651 3654 
3653 3655 3656 58 57 3658 3657 3659 3660 
3699 3662 3665 3664 3668 3669 3666 3667 3672 
3671 3670 73 3674 3673 3676 3715 3713 41 
3678 3717 3644 3680 46 85 3646 3648 3681 
3685 3683 3687 86 3689 3692 3691 3690 3686 
94 93 3694 3693 3695 3696 97 98 3701 
3697 3700 3704 105 3705 3702 3703 3708 3709 
3706 3707 3712 110 3753 3710 3711 3716 117 
3714 3718 3719 3720 125 3682 3725 3688 3723 
3728 129 126 3726 3729 3727 3732 130 133 
3731 3730 3733 3735 3736 137 141 3738 3698 
3737 3741 3739 3744 145 3745 3742 3743 3748 
3749 3746 3747 3752 157 3751 3750 3754 3755 
3756 121 3721 3757 3684 3759 122 3765 165 
3722 3763 3768 166 169 3769 3766 3767 3772 
170 3734 3773 3771 3775 3774 3777 3778 3740 
3779 3780 185 3785 3781 3782 3783 3784 193 
3788 3789 3786 3787 3791 3790 3793 3760 3795 
3797 158 161 3758 3724 3761 3799 202 3762 
162 3802 3805 3803 3808 209 3770 3809 3807 
3811 213 3813 3776 3815 214 3814 217 3818 
3817 3819 218 3820 225 3821 3822 3823 3824 
186 3825 3792 3829 3827 233 3794 3796 3833 
3835 3800 201 198 3764 3798 3801 3837 3839 
3845 3841 3843 3844 210 3806 3849 3810 3812 
3847 3851 253 254 3853 3816 3855 3856 3854 
261 3857 3858 257 3859 3860 226 222 3861 
3828 3865 3863 230 3831 229 3826 3830 3832 
3871 3869 234 3834 3836 3873 3875 3804 3877 
3838 3840 3879 3842 3885 3848 3883 289 3889 
3846 3852 3887 293 250 3850 3893 3891 3896 
290 297 3895 3897 3894 3899 3864 266 265 
3901 3867 3862 3868 3866 269 309 3870 3872 
3909 3911 274 3874 3913 3876 3915 317 3917 
3878 3880 3919 3925 3882 3888 325 3923 329 
286 3929 3886 3892 3927 294 3890 3933 3931 
3935 3930 298 3898 3937 3900 3904 302 3907 
3905 3902 3903 3908 3945 349 3949 3906 3912 
3947 3910 3914 3953 3916 3951 3955 357 3881 
3921 3884 3918 3920 321 3959 322 361 3922 
3961 3928 3963 3965 3926 3969 3932 3967 3971 
333 3934 3973 3936 3940 338 341 3938 3939 
3944 3941 342 385 3943 3985 3942 3948 3983 
346 3946 3989 3952 3987 393 3954 3950 3956 
3991 3957 3958 3924 3960 3999 1 3601 3962 
3603 3964 369 3605 3966 3968 3972 373 3970 
374 377 3975 3976 3974 3977 3980 381 378 
3978 3981 3979 3984 3625 3982 3623 3988 386 
3990 3986 3627 3992 3993 3994 3995 3996 3637 
3998 3997 3639 4000 
type 1 4000 int
1 1 1 1 1 1 1 1 1 
1 1 1 1 1 1 1 1 1 
1 1 1 1 1 1 1 1 1 
1 1 1 1 1 1 1 1 1 
1 1 1 1 1 1 1 1 1 
1 1 1 1 1 1 1 1 1 
1 1 1 1 1 1 1 1 1 
1 1 1 1 1 1 1 1 1 
1 1 1 1 1 1 1 1 1 
1 1 1 1 1 1 1 1 1 
1 1 1 1 1 1 1 1 1 
1 1 1 1 1 1 1 1 1 
1 1 1 1 1 1 1 1 1 
1 1 1 1 1 1 1 1 1 
1 1 1 1 1 1 1 1 1 
1 1 1 1 1 1 1 1 1 
1 1 1 1 1 1 1 1 1 
1 1 1 1 1 1 1 1 1 
1 1 1 1 1 1 1 1 1 
1 1 1 1 1 1 1 1 1 
1 1 1 1 1 1 1 1 1 
1 1 1 1 1 1 1 1 1 
1 1 1 1 1 1 1 1 1 
1 1 1 1 1 1 1 1 1 
1 1 1 1 1 1 1 1 1 
1 1 1 1 1 1 1 1 1 
1 1 1 1 1 1 1 1 1 
1 1 1 1 1 1 1 1 1 
1 1 1 1 1 1 1 1 1 
1 1 1 1 1 1 1 1 1 
1 1 1 1 1 1 1 1 1 