# vtk DataFile Version 4.0
Generated by LAMMPS
ASCII
DATASET POLYDATA
POINTS 4000 float
1.13856 1.61968 1.48748 4.81941 1.61322 1.65178 3.0318 1.66009 3.68423 
3.15215 1.46798 -0.519539 5.01616 -0.703566 -0.681844 4.80534 3.63085 -0.495342 
8.58734 1.42201 1.44373 6.75016 3.64296 1.56284 6.70862 1.76222 3.70913 
8.77166 3.59117 -0.567037 12.6723 1.57581 1.57659 10.5985 3.52726 1.43985 
10.6181 1.5538 3.50383 10.6645 -0.454461 1.43036 12.5553 -0.567726 3.64158 
16.4326 1.57108 1.50674 14.6379 3.5807 1.57891 14.4532 1.378 3.76698 
16.358 3.62516 3.71803 16.5148 -0.60836 3.83947 20.3414 1.76645 1.67452 
18.2906 1.57639 3.53847 20.3174 3.57748 3.63135 22.1575 -0.555003 1.39997 
22.1933 1.53902 -0.627294 18.3245 1.60522 -0.434474 20.3649 -0.470008 -0.540341 
24.1402 1.49266 1.38594 25.9721 3.55506 1.41024 26.2417 1.45425 -0.68959 
25.9593 -0.456477 1.36916 27.8457 1.43667 1.58016 29.7619 3.4234 1.6368 
29.7399 1.40248 3.6539 29.7982 1.58485 -0.565165 28.0129 -0.545707 -0.632543 
27.925 3.71677 -0.586562 31.6742 1.5765 1.69443 33.6454 3.87494 1.5708 
31.5177 3.60792 -0.41958 33.4746 1.52157 -0.546981 35.5734 1.67751 1.31444 
37.3988 3.71398 1.46552 37.5206 1.6398 -0.637316 37.553 -0.599001 1.64524 
35.4743 -0.556622 -0.645695 3.04491 3.56294 1.37343 4.91636 5.64758 1.50664 
2.88592 7.77749 1.52709 2.88937 5.63305 -0.66374 1.09104 5.69661 1.55258 
8.68012 5.62928 1.64093 6.7976 5.75591 3.65319 8.71441 7.74987 3.90172 
6.74761 5.58219 -0.561694 12.6876 3.75991 3.51282 12.6793 5.72071 1.59887 
10.7735 5.59754 3.68164 16.4419 5.79054 1.53945 14.4444 5.58409 3.77159 
16.6781 3.74173 -0.627897 18.35 3.70496 1.52554 22.4013 3.7623 1.4704 
20.2619 5.69229 1.62355 18.3074 5.62468 3.61289 22.0958 5.76963 3.62756 
20.2581 7.76115 3.77533 18.3154 5.82162 -0.412557 24.2566 5.74684 1.57338 
26.1032 7.85823 1.52014 24.1207 3.55074 -0.675652 25.8891 5.64151 -0.532723 
27.6508 5.77963 1.58748 29.5882 7.64224 1.61314 29.8533 5.63651 -0.525283 
31.6837 5.80294 1.75977 33.5681 7.78196 1.53439 31.6568 7.84707 3.57987 
33.5722 5.77178 -0.727517 35.494 5.8708 1.47203 37.6131 7.64646 1.40466 
37.4383 5.66739 3.5853 35.6667 7.78925 -0.581432 4.95576 7.80719 3.70008 
4.88813 9.6844 1.67492 3.0368 9.87999 3.47696 4.8223 12.1208 3.90218 
1.12363 9.84532 1.53478 4.88567 11.8721 -0.449902 3.0456 9.82787 -0.443769 
6.80097 7.7402 1.63901 8.78938 9.82504 1.57937 6.86956 9.71601 -0.404549 
10.6406 7.57208 1.66284 12.4423 7.82703 3.76324 12.4076 7.86075 -0.41686 
12.5484 9.9053 1.65491 10.6955 9.83009 3.69706 14.5211 7.87401 1.5676 
16.2824 7.72031 3.72089 16.513 9.94177 1.58718 14.4932 9.8502 3.64672 
16.3721 11.9628 3.56581 18.1878 7.86571 1.68739 22.0395 7.75633 1.60735 
20.1064 9.90085 1.66642 22.0396 11.8779 1.46943 18.3142 9.75959 3.75041 
20.2168 7.94856 -0.371647 22.0805 9.86815 -0.677046 24.1557 7.73817 -0.657143 
23.9952 9.83006 1.46216 25.8976 11.9985 1.45153 23.8116 11.8495 -0.38421 
26.0495 9.90458 -0.33222 27.7887 7.87072 3.81596 29.7001 9.74218 -0.50881 
27.8375 10.011 1.69686 29.8349 11.9606 1.62034 31.659 9.83501 1.46544 
33.7788 11.9223 1.56514 33.6879 9.73752 -0.506193 31.704 12.0163 -0.651436 
35.5395 7.71291 3.59686 39.3315 11.9174 3.54658 35.6807 9.71473 1.39107 
37.4576 9.89738 3.63244 35.5485 12.0053 3.67929 37.6459 9.81717 -0.586877 
3.02004 12.0428 1.65136 5.06936 13.8395 1.71155 3.02418 16.0771 1.5443 
2.97092 14.1789 3.48186 3.04384 14 -0.438896 6.79038 11.7959 1.64471 
8.69676 11.9533 3.64661 8.75549 13.9348 1.38202 6.95959 16.1462 1.61278 
10.6172 12.0385 1.61626 12.6501 11.9393 3.67175 12.5884 14.1236 1.56142 
10.6922 16.1492 1.46169 10.7091 13.9002 3.71763 10.8447 14.0423 -0.588135 
14.4147 12.1687 1.68037 16.5799 11.9333 -0.469787 16.558 14.2006 1.53587 
14.5254 16.125 1.42121 14.5191 14.141 3.58648 18.3662 11.9467 1.68865 
20.1385 11.9425 3.74021 20.2182 13.973 1.56301 18.42 16.21 1.47588 
22.1681 14.0066 3.63868 24.001 13.8867 1.48501 25.9859 14.0555 3.57678 
27.9276 11.878 -0.611388 27.8885 13.9876 1.57909 29.8051 16.095 1.65212 
29.8733 14.0309 -0.445159 31.7395 14.0246 1.64626 33.5789 16.2171 1.69219 
33.6052 14.087 -0.459276 39.4924 11.9388 -0.439861 37.4096 11.9468 1.47669 
39.2849 13.9396 1.59135 35.6237 14.0074 1.44576 37.5307 14.1312 3.75005 
39.3388 16.1395 -0.538087 37.5482 13.885 -0.596735 4.87908 16.0643 -0.490251 
4.97873 18.2348 1.49014 3.19993 20.2736 1.46988 3.08067 18.0514 -0.435618 
8.68078 18.2247 1.47953 6.70529 20.2779 1.62677 6.79333 18.3485 3.71231 
8.78481 20.2525 3.49721 8.6978 20.2437 -0.651123 12.5105 16.1603 3.57533 
12.5798 18.2359 1.55076 10.7095 18.1411 3.37575 12.5538 20.2617 3.46671 
12.5623 20.3336 -0.371461 16.3565 18.2267 1.4526 14.4265 18.0969 3.60469 
14.4966 18.1822 -0.498844 16.5799 16.1826 -0.578462 16.3347 20.343 -0.596455 
22.1774 16.1438 1.63142 20.1465 18.3401 1.41355 18.2728 20.341 1.55425 
18.2897 18.3117 3.60667 22.0454 18.1641 3.62482 25.742 16.0249 1.49637 
23.8783 16.0356 -0.575903 24.0281 18.2608 1.46688 25.9454 20.2802 1.28807 
27.7991 18.2328 1.50253 29.7153 18.1819 3.59133 27.8482 20.3009 -0.616683 
31.722 16.084 -0.551399 31.7113 18.054 1.6714 33.4713 18.2496 -0.447598 
37.3603 16.0665 1.64792 39.3764 18.3688 1.63942 35.5308 18.1838 1.64113 
37.3596 18.2849 3.60135 37.4917 18.3726 -0.463322 4.89104 22.501 1.64801 
3.14664 22.2954 -0.597069 4.82237 24.3474 -0.546576 5.00773 20.2624 -0.63698 
1.01649 20.3815 -0.432971 8.75379 22.2083 1.36788 6.94834 22.3735 -0.605186 
10.4527 20.3129 1.47586 12.5293 22.2804 1.63088 10.5334 22.4483 3.4763 
10.8017 22.3646 -0.698241 10.6955 24.461 1.34631 14.5346 20.3495 1.58437 
16.4254 22.3377 1.40444 16.3341 20.3397 3.63005 14.4278 22.4125 -0.473805 
14.3732 24.4706 1.58465 22.1305 20.297 1.50586 20.1942 22.3808 1.53312 
22.039 22.24 3.65589 18.2849 22.4615 -0.680332 22.0806 24.4727 1.36356 
24.0122 22.3888 1.6041 26.005 22.378 3.47216 24.0495 20.3002 -0.560988 
25.9241 24.4239 1.46475 29.8701 22.2779 -0.623289 29.995 20.1757 1.3846 
27.9953 22.1882 1.38688 29.7686 22.2069 3.58515 29.915 24.3607 1.56384 
27.9086 24.3364 -0.494834 33.5583 20.2593 1.46785 31.6274 22.3615 1.40499 
31.6742 20.2436 3.73578 33.6552 22.1689 3.57787 39.6904 22.2984 1.58058 
37.5248 20.387 1.59473 35.5008 22.2761 1.55263 35.6035 20.4076 3.56296 
37.5337 22.3674 3.6951 37.3773 24.4753 1.57982 2.96827 24.4698 1.63498 
4.94011 26.4869 1.28935 2.98778 26.4866 3.61484 2.7707 26.5016 -0.486876 
3.0324 28.6465 1.26276 5.07681 28.5116 -0.68589 6.89839 24.2957 1.54798 
8.76236 26.6803 1.40931 8.73011 24.4359 3.62217 8.69914 28.6473 -0.790125 
10.6455 26.6629 -0.766492 12.4916 26.5446 1.51843 10.6115 26.4313 3.5264 
16.2825 26.6052 1.53369 16.2133 28.6812 3.42913 18.1567 24.5256 1.59446 
20.158 26.4421 1.29194 18.2194 26.5636 3.58858 20.2382 24.4258 3.56052 
22.2449 26.5947 3.41829 18.3525 28.6635 1.39494 20.2214 28.4657 3.40777 
18.2754 26.3539 -0.477075 20.1617 28.5236 -0.603448 24.0516 26.3856 1.30338 
25.999 26.4125 3.5208 25.9258 26.4851 -0.794423 24.0003 24.4058 -0.650559 
27.9838 26.3664 1.41683 29.8129 26.4196 -0.464119 27.8792 28.4384 3.60553 
33.7275 24.3161 1.57627 31.8374 26.4589 1.6811 33.5935 26.5725 3.88842 
33.5733 26.4546 -0.521219 33.6413 28.6424 1.63605 39.3603 26.5333 1.704 
35.3838 26.5746 1.52939 37.1887 26.358 3.62239 35.5756 24.5453 -0.603096 
37.4917 28.5215 1.4972 39.4081 24.2492 -0.513562 4.82387 30.6629 1.33193 
1.18629 30.6383 1.38219 4.88371 32.7895 -0.569818 6.71226 28.5118 1.48773 
8.6675 30.549 1.39809 6.87409 30.6776 -0.515521 10.7339 28.6657 1.30065 
12.644 30.6002 1.49885 12.5651 28.5556 3.56128 12.5589 32.7382 -0.599201 
12.6555 28.5761 -0.636533 14.3951 28.6511 1.467 16.4439 30.7093 1.48818 
14.5267 30.8446 3.51042 14.4615 30.7282 -0.509314 14.5142 32.7932 1.44031 
22.0555 28.7589 1.49708 20.1327 30.6854 1.36352 22.3008 30.6516 3.52508 
18.2686 30.8259 -0.729519 18.302 32.718 1.59425 22.061 32.5781 1.55126 
20.1298 32.8015 -0.593263 25.9853 28.4849 1.39932 24.2368 30.5868 1.46156 
24.0786 28.5211 3.41006 26.1225 32.6448 1.69523 24.168 32.7558 3.47998 
29.7813 28.5943 1.6134 27.6578 30.4135 1.54158 27.7716 28.5246 -0.793715 
31.7724 30.7013 1.54549 33.5343 30.6592 -0.526023 35.5298 30.7594 1.44229 
37.4626 30.6418 3.57721 39.2894 28.5994 -0.676767 3.09346 32.777 1.56315 
4.85769 34.7749 1.45237 5.15945 32.8135 3.53385 2.92885 34.763 -0.56496 
3.14979 36.9528 1.52264 6.86663 32.681 1.31368 8.73627 34.8962 1.43687 
6.82948 34.783 3.62965 6.79589 36.8551 1.4491 8.7902 36.8824 3.64163 
10.6158 32.6083 1.46804 12.5039 34.6807 1.35614 10.5173 34.7904 3.69409 
12.5699 32.8178 3.60537 10.5684 34.9322 -0.657657 16.4765 34.7417 1.65948 
16.4203 32.7962 3.47237 16.3872 32.7597 -0.55724 20.3809 34.8806 1.56431 
18.5581 34.9156 3.67732 20.2987 32.8005 3.55331 22.1353 34.826 -0.580114 
23.969 34.8353 1.6201 25.987 34.6374 -0.407078 24.2847 36.7703 -0.729512 
29.5274 32.6453 1.57603 27.8699 34.8309 1.62785 27.8882 32.5641 3.73046 
27.8017 36.9106 3.72894 33.5928 32.6675 1.5208 31.6933 34.6549 1.70566 
33.7836 34.8631 3.6396 33.7444 36.8945 1.49098 31.6485 32.6442 -0.483448 
39.4068 34.7653 1.54746 37.628 32.6276 1.49381 35.6592 34.5655 1.59026 
35.5443 32.7279 3.64963 2.966 41.0352 1.5058 4.80754 39.0295 1.46137 
4.84758 36.7091 -0.529266 2.87141 39.0925 -0.65456 8.67411 41.1134 3.59044 
6.70986 41.0639 1.54328 8.92031 38.9214 1.48739 6.91893 38.9133 3.54173 
6.92315 38.8646 -0.487495 10.5186 36.813 1.53407 12.373 38.9624 1.58237 
10.7075 39.0901 3.70708 12.4675 36.9132 3.65787 14.4655 40.9786 1.58317 
16.5482 41.209 -0.548127 14.5153 36.9774 1.57322 16.7059 38.9822 1.49385 
14.4783 39.0497 3.46255 20.3851 41.3373 3.48702 18.4864 41.1535 1.48789 
18.471 36.702 1.60949 22.1542 36.9393 1.45838 20.285 38.8124 1.50817 
18.3374 38.9632 3.61942 22.1448 39.1756 3.51579 18.3208 38.7999 -0.485791 
25.9994 36.8935 1.42758 24.0454 38.8966 1.34179 26.0312 39.0757 -0.451116 
24.1738 41.0338 -0.644472 29.8812 41.0001 1.70508 29.8003 36.8882 1.51644 
27.9659 38.9402 1.49967 29.8683 38.7915 3.51655 27.8358 36.8711 -0.544982 
[...]
POINT_DATA 4000
FIELD FieldData 6
id 1 4000 int
4 8 402 2 5 45 12 47 406 
49 16 51 410 11 413 20 55 414 
457 417 24 418 461 23 22 18 21 
28 67 26 27 32 71 430 30 29 
69 36 75 73 34 40 79 38 39 
37 43 48 83 42 44 52 446 489 
46 453 56 450 60 454 57 59 63 
64 458 462 501 58 68 107 65 66 
72 111 70 76 115 513 74 80 119 
478 117 485 88 482 525 84 125 82 
87 92 86 91 493 93 96 490 95 
497 100 494 537 99 103 104 143 498 
101 102 105 108 147 145 106 509 110 
112 151 116 155 114 153 517 521 120 
518 557 118 123 128 163 522 122 127 
529 132 167 131 533 136 171 530 130 
135 137 140 175 534 139 541 144 179 
542 148 546 149 152 191 150 156 195 
154 121 159 124 160 558 161 158 165 
168 203 162 172 207 566 609 209 573 
176 570 613 213 180 574 174 177 217 
183 184 219 578 582 187 185 188 227 
192 590 229 193 196 194 199 164 200 
598 198 208 202 245 205 201 212 206 
211 216 610 210 251 215 220 617 214 
255 223 224 622 218 263 228 626 225 
267 230 231 232 630 271 269 235 236 
633 634 204 239 240 637 638 279 243 
248 642 242 283 285 247 252 649 289 
250 256 650 260 697 259 264 658 661 
662 299 701 258 301 268 666 266 265 
272 270 709 275 276 674 274 315 244 
280 678 277 319 241 288 284 325 287 
292 286 291 296 693 333 293 295 300 
694 294 335 303 304 702 298 339 343 
341 307 308 705 347 745 311 312 309 
316 314 320 718 281 323 328 725 322 
363 327 332 726 367 769 331 336 730 
733 330 340 737 337 344 738 741 342 
348 346 385 351 352 749 789 355 356 
754 395 353 324 359 360 757 3 368 
365 362 409 7 372 766 366 371 376 
770 773 15 17 375 380 774 421 19 
379 383 384 778 782 378 387 388 386 
25 31 391 392 790 389 35 33 433 
396 793 794 437 364 361 399 400 1 
401 405 404 408 802 449 412 806 416 
810 853 420 814 415 422 424 459 818 
423 419 426 465 428 467 825 432 471 
434 473 436 834 438 440 479 439 445 
442 481 443 845 448 483 842 881 447 
849 452 889 451 456 850 455 460 463 
464 503 858 862 901 466 505 865 468 
507 866 469 470 869 472 511 870 474 
475 476 441 477 877 444 480 519 878 
488 486 487 492 527 886 491 496 890 
495 500 502 499 504 539 543 902 506 
545 508 510 909 512 551 910 514 515 
516 555 914 917 484 520 559 918 957 
565 523 921 528 563 524 526 532 926 
531 933 536 973 577 535 937 540 575 
538 544 942 585 547 945 548 946 549 
550 589 552 591 989 553 554 556 595 
954 561 597 560 599 958 562 601 605 
568 603 962 1005 569 567 969 572 607 
966 1009 571 576 611 1013 580 615 581 
621 579 583 981 584 619 978 982 586 
587 985 588 627 629 592 990 1029 593 
594 596 635 1001 564 600 639 602 645 
641 608 604 643 606 612 1006 653 616 
1010 1053 614 620 1014 618 623 624 1018 
1022 663 625 665 628 1025 667 631 632 
671 673 636 1034 675 1073 677 640 679 
685 648 683 1085 646 647 652 1046 687 
651 656 1050 654 657 655 660 659 664 
1061 1062 699 703 668 1065 707 669 670 
672 1070 711 1109 713 676 715 681 644 
680 1078 682 688 1082 686 689 692 690 
691 696 1090 695 700 1094 1097 698 704 
1098 1102 706 708 1106 747 710 712 714 
753 716 1153 717 1081 684 719 720 1117 
722 721 765 723 728 724 1121 1165 729 
727 732 767 731 736 1130 771 734 777 
735 740 742 781 739 743 744 1138 1141 
783 746 748 787 750 751 752 1149 1150 
791 1189 755 756 758 797 759 760 1197 
762 403 763 768 407 809 772 1166 411 
776 817 775 780 1174 1177 779 784 1182 
425 785 786 427 788 1185 1186 429 829 
431 792 435 795 796 1193 1194 761 798 
764 799 800 841 808 1202 804 803 1205 
812 1206 1249 813 816 1210 1253 1213 820 
855 1214 815 822 861 824 859 1218 1222 
819 823 826 828 867 1226 830 832 871 
1230 836 1234 838 837 801 840 879 1201 
885 843 844 848 846 847 852 1246 851 
856 1250 857 854 860 1254 863 1261 864 
903 1265 868 1266 1269 872 911 873 874 
875 1273 876 1274 1313 1281 880 919 1278 
882 883 888 884 929 887 892 893 891 
1293 896 897 894 895 1297 900 1294 1337 
898 899 904 1302 905 906 907 908 1306 
1309 912 951 1310 1349 913 953 915 916 
955 1353 1317 920 925 922 961 923 928 
963 924 927 932 930 931 936 1330 1373 
934 935 940 941 938 939 1341 943 1338 
944 1342 947 1345 948 949 950 952 1350 
956 995 997 959 960 999 965 968 1003 
1362 964 967 972 1366 1409 970 971 976 
1011 977 974 1017 975 1377 980 979 983 
984 1378 1382 986 987 988 1027 991 992 
1390 993 994 1033 996 998 1037 1000 1039 
1002 1008 1402 1405 1004 1049 1007 1012 1406 
1449 1016 1410 1413 1015 1020 1414 1055 1021 
1019 1023 1024 1063 1461 1026 1028 1426 1030 
1069 1031 1032 1469 1035 1036 1433 1038 1040 
1438 1079 1477 1042 1045 1041 1043 1048 1442 
1445 1083 1047 1052 1446 1051 1056 1450 1453 
1493 1054 1057 1060 1454 1095 1058 1059 1064 
1099 1103 1066 1105 1067 1068 1465 1466 1505 
1071 1072 1470 1074 1075 1076 1473 1474 1077 
1044 1441 1080 1119 1088 1482 1485 1084 1481 
1086 1089 1129 1087 1092 1486 1489 1093 1133 
1091 1096 1131 1100 1494 1497 1135 1101 1104 
1143 1107 1108 1506 1110 1111 1112 1509 1113 
1114 1115 1116 1513 1514 1155 1118 1120 1517 
1159 1557 1122 1125 1123 1124 1128 1525 1126 
1127 1132 1526 1529 1167 1173 1136 1530 1533 
1134 1137 1140 1534 1175 1142 1139 1144 1179 
1581 1145 1146 1147 1148 1545 1546 1151 1152 
1549 1550 1154 1156 1553 1554 1195 1157 1158 
1160 1199 805 1162 1161 1163 1168 1562 1169 
1209 807 1172 1566 1569 1170 811 1171 1176 
1180 821 1178 1181 1183 1184 1578 1582 827 
1225 1187 1188 1190 1229 831 1191 1192 833 
835 1196 1198 839 1164 1200 1245 1208 1204 
1641 1212 1247 1216 1251 1257 1217 1220 1255 
1215 1221 1224 1259 1263 1618 1622 1621 1219 
1223 1228 1626 1227 1625 1232 1271 1630 1231 
1236 1275 1634 1238 1237 1240 1239 1637 1242 
1285 1243 1248 1283 1649 1252 1287 1256 1650 
1693 1260 1258 1262 1264 1303 1658 1267 1665 
1268 1270 1669 1272 1670 1276 1674 1713 1241 
1277 1279 1244 1280 1282 1288 1323 1284 1289 
1286 1329 1292 1327 1290 1333 1291 1296 1295 
1300 1335 1694 1301 1298 1299 1304 1343 1702 
1305 1307 1705 1308 1347 1706 1311 1709 1312 
1351 1314 1315 1316 1318 1357 1319 1717 1320 
1325 1321 1322 1328 1324 1326 1332 1331 1733 
1336 1730 1334 1340 1375 1734 1381 1339 1738 
1344 1379 1742 1346 1745 1348 1352 1391 1750 
1789 1354 1393 1355 1356 1754 1793 1358 1359 
1757 1360 1365 1363 1368 1403 1364 1369 1367 
1372 1407 1370 1371 1773 1376 1411 1770 1813 
1374 1777 1380 1774 1817 1383 1384 1419 1423 
1385 1386 1425 1387 1388 1427 1786 1389 1429 
1392 1431 1790 1394 1395 1396 1435 1361 1397 
1398 1437 1399 1801 1400 1439 1837 1401 1408 
1802 1805 1443 1412 1806 1809 1447 1416 1810 
1417 1415 1420 1814 1418 1421 1422 1424 1459 
1428 1825 1826 1430 1432 1829 1830 1471 1434 
1436 1834 1404 1440 1838 1479 1877 1448 1444 
1885 1452 1846 1849 1451 1456 1853 1491 1457 
1455 1460 1854 1857 1458 1462 1464 1858 1862 
1463 1467 1468 1866 1507 1472 1511 1909 1475 
1476 1515 1913 1478 1480 1878 1881 1521 1483 
1488 1484 1925 1487 1492 1527 1490 1496 1893 
1537 1495 1500 1498 1501 1502 1499 1503 1504 
1901 1902 1539 1941 1508 1510 1512 1910 1949 
1516 1914 1518 1519 1520 1918 1559 1522 1565 
1561 1523 1528 1965 1532 1926 1567 1573 1531 
1536 1571 1577 1535 1540 1934 1937 1538 1541 
1542 1543 1544 1942 1981 1547 1548 1945 1946 
1985 1551 1552 1989 1555 1556 1953 1954 1558 
1524 1560 1957 1601 1203 1563 1564 1568 1207 
1572 1570 1211 1576 1574 1575 1580 1579 1584 
1982 1583 1585 1586 1587 1588 1986 1589 1590 
1591 1592 1233 1593 1594 1235 1595 1596 1597 
1598 1961 1599 1600 1997 1998 1602 1645 1608 
2045 2041 1604 1603 1606 1609 1612 2006 1610 
1653 1613 1616 1614 1657 1617 1620 1655 1615 
2017 1624 2018 2022 2061 1623 1628 2026 1629 
1632 1671 2030 1631 1633 1636 1675 1635 1638 
1640 2077 1639 1642 1643 1648 2042 1644 1646 
1689 1647 1652 2089 1651 1656 1691 1654 1697 
1660 1695 1661 1662 1659 1663 1699 2058 1664 
2101 1666 1667 1703 1668 2066 2069 1672 1711 
1673 1676 1715 1677 1678 1679 1680 1685 1682 
1683 1688 1684 1686 1687 1692 1690 1696 1737 
1700 2094 1701 1698 1741 1739 1704 1707 1708 
2106 1710 2109 1712 1751 2110 1714 1716 1755 
2153 1681 1718 1719 2117 1720 1725 1721 1722 
1723 1728 2122 1729 1726 1727 1732 2126 1731 
1736 1735 1740 1775 1781 1743 1744 2138 2142 
2181 1746 1747 2145 1748 2146 1749 1752 1791 
2150 2189 1753 1756 1795 2154 1758 1759 1724 
1760 2158 2197 1765 1761 1762 1763 1768 2162 
1764 1769 1766 1767 2169 1772 1807 2166 1771 
1776 1780 2174 1778 1782 1821 1783 1779 1784 
1819 1823 2182 1785 1787 2185 1788 2186 1792 
1831 2190 2229 1794 1796 2194 1797 1798 1799 
1800 1839 1803 1808 2202 2205 1812 2206 2249 
1811 1816 2210 1815 1820 2217 1859 1818 1822 
1824 1861 2218 1863 1865 1827 1828 2226 1867 
1869 1832 2230 1871 2269 1833 1873 1835 1836 
2201 1804 1840 2238 2277 1842 1845 1843 1848 
2245 1883 2285 1847 1852 1887 1850 1851 1856 
2250 1891 2293 1897 1855 1860 1864 2261 2262 
1899 2301 1905 1868 2266 1907 1870 1872 2270 
1874 1875 1876 2273 2274 1841 2241 1844 1879 
1880 1882 1888 2282 1884 2281 2325 1886 1889 
1929 1892 2286 2289 1927 1890 1933 1896 2290 
1894 1895 1900 2297 1935 2337 1898 1903 1904 
2298 2302 1939 1943 1906 1908 2306 1947 2345 
1911 1912 2309 2349 1915 1916 2314 1917 1919 
1920 2317 2318 1922 1921 1923 1928 1924 2365 
2361 1969 1932 1930 1931 1936 1977 1940 2334 
2377 1938 1944 2338 2342 1979 2381 1948 2346 
1987 1950 1951 1952 1991 2389 1955 1956 2353 
1958 2321 1959 1960 2357 1999 1605 1962 1963 
1968 2362 1966 1607 1967 1972 2366 1970 1973 
1611 1971 1976 1974 1975 1980 2374 1978 2021 
1619 1983 1984 2378 2382 2025 1627 1988 2386 
1990 2029 1992 2390 1993 1994 1995 1996 2394 
1964 2000 2002 2004 2008 2445 2012 2047 2049 
2406 2449 2010 2016 2051 2053 2013 2410 2014 
2020 2015 2019 2023 2024 2063 2422 2421 2028 
2065 2067 2426 2425 2032 2071 2034 2036 2073 
2075 2035 2033 2038 2040 2039 2037 2438 2401 
2043 2048 2044 2046 2052 2087 2050 2056 2055 
2057 2054 2060 2097 2454 2059 2062 2064 2099 
2103 2501 2068 2465 2466 2070 2072 2470 2509 
2074 2076 2115 2079 2078 2080 2119 2477 2083 
2085 2082 2088 2121 2482 2086 2092 2127 2529 
2091 2093 2090 2096 2490 2095 2100 2135 2494 
2537 2098 2102 2104 2139 2141 2498 2502 2105 
2107 2108 2147 2505 2545 2111 2112 2151 2510 
2113 2114 2116 2081 2084 2118 2120 2481 2123 
2125 2128 2165 2525 2522 2129 2132 2131 2133 
2130 2136 2171 2173 2137 2134 2140 2177 2534 
2143 2144 2183 2542 2148 2546 2149 2152 2191 
2550 2589 2155 2156 2193 2157 2159 2124 2160 
2558 2163 2161 2168 2164 2167 2172 2209 2569 
2170 2176 2211 2570 2175 2180 2577 2179 2178 
2184 2221 2223 2581 2582 2621 2187 2188 2225 
2192 2231 2590 2195 2196 2233 2235 2593 2594 
2199 2198 2200 2203 2208 2204 2605 2601 2212 
2207 2606 2649 2213 2216 2214 2215 2220 2255 
2257 2219 2222 2224 2259 2618 2622 2227 2228 
2267 2625 2626 2232 2271 2629 2630 2234 2236 
2275 2633 2237 2239 2240 2279 2641 2242 2243 
2248 2244 2283 2246 2247 2252 2646 2251 2253 
2256 2254 2260 2657 2258 2264 2263 2299 2658 
2662 2701 2265 2268 2665 2666 2272 2311 2669 
2670 2709 2276 2313 2315 2673 2674 2713 2278 
2280 2288 2682 2685 2287 2292 2327 2686 2689 
2291 2296 2294 2295 2300 2304 2303 2339 2343 
2702 2305 2308 2307 2347 2705 2310 2312 2351 
2710 2749 2316 2355 2753 2284 2319 2320 2359 
2322 2323 2328 2324 2363 2326 2329 2332 2367 
2330 2331 2333 2336 2733 2773 2335 2340 2734 
2341 2344 2379 2383 2738 2781 2348 2387 2746 
2350 2352 2391 2750 2789 2354 2356 2395 2754 
2793 2358 2360 2757 2005 2003 2368 2364 2007 
2009 2369 2372 2409 2011 2370 2371 2373 2376 
2413 2770 2375 2380 2777 2384 2778 2782 2027 
2385 2388 2785 2786 2031 2392 2429 2393 2396 
2794 2001 2397 2398 2399 2400 2437 2798 2402 
2408 2443 2403 2412 2806 2416 2451 2411 2853 
2813 2414 2420 2817 2418 2424 2459 2461 2419 
2818 2822 2821 2428 2467 2427 2430 2432 2469 
2830 2869 2434 2436 2473 2475 2435 2404 2440 
2479 2442 2448 2447 2446 2452 2487 2849 2453 
2450 2456 2491 2493 2850 2455 2457 2460 2497 
2857 2463 2458 2462 2464 2499 2503 2862 2468 
2905 2471 2472 2511 2909 2474 2476 2513 2515 
2913 2441 2444 2478 2480 2517 2841 2483 2485 
2488 2885 2921 2489 2486 2492 2929 2496 2893 
2495 2500 2894 2504 2901 2902 2507 2506 2508 
2547 2512 2949 2514 2516 2553 2914 2519 2521 
2484 2518 2520 2559 2918 2523 2528 2563 2527 
2526 2532 2531 2533 2530 2536 2535 2540 2934 
2539 2541 2543 2538 2544 2938 2942 2548 2946 
2549 2551 2552 2950 2555 2554 2556 2953 2954 
2557 2561 2524 2560 2565 2562 2568 2603 2962 
2567 2566 2572 2571 2573 2576 2973 3013 2575 
2574 2580 2579 2583 2578 2584 2981 2978 2982 
2585 2587 2586 2588 2985 2591 2592 2631 2990 
3029 2595 2596 2994 2597 2599 2564 2598 2600 
2961 2602 2608 2604 2645 2607 2609 2612 2610 
2611 2613 2616 2651 3010 2614 2615 2617 2620 
2619 2623 2624 3021 3022 2627 2628 3025 3026 
2632 2671 2634 2635 2636 2675 3034 2637 2638 
2639 2640 3038 3077 2642 2643 2648 2683 2681 
3045 2647 2652 2687 2650 2653 2656 2691 3050 
3093 2654 2655 2660 3097 2659 2661 2663 2664 
3058 3101 2667 2668 2707 3065 3066 2672 2711 
3069 3070 3109 2676 2715 2644 2677 2678 2679 
2680 2717 2688 2684 2725 2721 3125 2692 2729 
2690 2693 2696 2731 2694 2695 2697 2700 2735 
2698 2699 2703 2704 2741 2706 2708 3106 3145 
2712 2751 3110 2714 2716 2755 3114 2718 2719 
2720 2722 2723 2728 2763 2765 2726 2727 2732 
2767 2769 3169 2730 2736 3173 2737 2740 3134 
2739 2742 2743 2744 2779 2783 2745 2747 2748 
2752 2791 3150 2756 2795 3154 3193 2724 2758 
2759 2760 2761 2799 3157 3158 3161 2405 2762 
2768 2407 2766 2772 2771 2776 2417 2415 2774 
2775 2780 3174 3177 2423 2784 3181 3182 2787 
2788 3186 2431 2790 2792 2829 2433 2796 2764 
2439 2797 2800 3197 2802 2808 2843 2804 2805 
2803 2801 3205 2812 2847 3206 3249 2810 2816 
2851 2811 3210 2814 2820 2855 3217 2824 2859 
3222 3221 2826 2828 2865 2867 3226 2832 2871 
2831 2834 2836 2873 2875 2833 2838 2840 2877 
2879 2839 2845 2842 2848 2883 3245 3242 2846 
2852 2887 3246 3289 2856 2891 3250 3293 2854 
2860 2897 3254 2861 2863 2858 2864 2903 3261 
3258 2866 2868 2907 2870 2872 2911 3270 2874 
2876 2915 2844 2878 2880 2919 2882 2888 2884 
2889 2886 2892 3286 2890 2896 2931 3333 2895 
2900 2937 3294 2899 2898 2904 2939 2941 2943 
3302 2906 2908 2945 2947 3305 3345 2910 2912 
2916 2955 3353 2881 2917 2920 2957 2959 3317 
2923 2925 2922 2928 2924 2927 2926 2932 2967 
3326 2933 2930 2936 2971 2935 2940 2977 3337 
2944 2983 3338 3342 2948 3385 2951 2952 2989 
3349 3350 3389 2956 2995 2958 2960 2997 2999 
3358 2963 2965 2968 3005 2964 3365 3361 2969 
2966 2972 3366 2970 2976 3011 3373 2975 2974 
2980 3377 2979 2984 3381 3421 2987 2986 2988 
3027 3386 2991 2992 3031 2993 2996 3033 3001 
2998 3000 3037 3002 3003 3008 3043 3041 3006 
3007 3009 3012 3016 3053 3413 3015 3017 3020 
3014 3417 3018 3019 3023 3024 3422 3028 3067 
3425 3426 3465 3030 3032 3430 3035 3036 3073 
3075 3004 3039 3040 3079 3401 3437 3042 3048 
3442 3046 3047 3049 3052 3087 3089 3051 3056 
3450 3054 3055 3057 3060 3059 3061 3062 3063 
3064 3099 3103 3458 3461 3462 3068 3105 3071 
3072 3111 3469 3470 3509 3074 3076 3113 3115 
3474 3513 3044 3078 3080 3081 3117 3478 3082 
3083 3085 3088 3123 3086 3092 3129 3486 3090 
3091 3096 3133 3490 3094 3095 3100 3135 3137 
3098 3102 3104 3139 3141 3143 3498 3502 3107 
3108 3147 3506 3112 3149 3510 3549 3116 3153 
3514 3084 3118 3119 3120 3159 3557 3122 3128 
3163 3165 3525 3565 3126 3127 3132 3167 3130 
3131 3136 3530 3533 3140 3175 3534 3138 3142 
3144 3179 3538 3542 3146 3148 3187 3585 3151 
3152 3189 3191 3550 3589 3155 3156 3124 3121 
3160 3199 3558 3597 3162 3168 3164 2807 2809 
3166 3172 3209 3170 3171 3176 3570 2815 3180 
3574 2819 2823 3178 3183 3184 3581 3582 2825 
2827 3185 3188 3190 3192 3590 2835 3194 3195 
3196 2837 3198 3200 3202 3208 3204 3212 3247 
3606 3216 3213 3211 3214 3220 3255 3257 3614 
3657 3617 3218 3224 3259 3263 3219 3661 3228 
3267 3230 3232 3269 3229 3231 3669 3234 3236 
3273 3275 3634 3673 3241 3238 3240 3277 3279 
3239 3243 3248 3283 3641 3642 3252 3287 3646 
3251 3253 3256 3291 3653 3650 3693 3260 3295 
3297 3654 3299 3262 3264 3301 3303 3658 3662 
3265 3266 3268 3271 3272 3309 3709 3274 3276 
3313 3315 3713 3244 3278 3280 3285 3282 3288 
3284 3685 3682 3725 3292 3329 3290 3296 3331 
3690 3733 3300 3335 3697 3694 3737 3298 3304 
3341 3343 3701 3698 3702 3307 3306 3308 3311 
3310 3312 3314 3316 3281 3319 3321 3318 3320 
3681 3323 3325 3322 3328 3327 3332 3729 3330 
3336 3371 3730 3334 3340 3339 3344 3742 3781 
3347 3346 3348 3387 3746 3785 3351 3352 3391 
3789 3355 3354 3356 3393 3395 3357 3359 3324 
3360 3397 3399 3363 3362 3368 3403 3405 3762 
3805 3367 3369 3372 3407 3766 3370 3376 3773 
3813 3375 3374 3380 3415 3379 3383 3378 3382 
3384 3782 3821 3388 3786 3390 3392 3431 3790 
3394 3396 3433 3435 3793 3364 3398 3400 3797 
3798 3402 3408 3404 3406 3409 3412 3447 3410 
3411 3416 3451 3453 3414 3420 3455 3418 3419 
3423 3424 3459 3861 3427 3428 3825 3826 3429 
3432 3829 3830 3434 3436 3475 3438 3439 3440 
3477 3443 3445 3448 3441 3483 3485 3446 3449 
3452 3487 3846 3456 3491 3493 3850 3454 3457 
3460 3495 3497 3463 3464 3858 3862 3466 3467 
3468 3905 3471 3472 3511 3869 3473 3476 3515 
3444 3479 3480 3481 3517 3519 3878 3482 3488 
3523 3882 3489 3492 3527 3929 3496 3531 3933 
3494 3500 3537 3937 3499 3501 3503 3504 3539 
3541 3543 3898 3902 3505 3507 3508 3545 3547 
3906 3512 3551 3949 3516 3555 3913 3914 3484 
3518 3520 3559 3921 3522 3528 3563 3526 3529 
3532 3567 3569 3969 3536 3571 3573 3930 3535 
3540 3575 3934 3977 3544 3583 3938 3941 3942 
3981 3546 3548 3587 3946 3552 3591 3553 3554 
3556 3593 3595 3953 3954 3521 3524 3560 3599 
3957 3958 3203 3201 3562 3568 3561 3564 3601 
3962 3207 3566 3572 3966 3576 3970 3215 3577 
3580 3223 3578 3579 3584 3227 3225 3586 3588 
3986 3592 3990 3233 3235 3594 3596 3994 3237 
3598 3600 3998 3602 3608 3645 3605 3603 6 
3612 9 10 53 3610 3616 3651 13 3613 
14 3620 61 3618 3622 3624 3659 3663 3621 
3626 3628 3667 3630 3632 3671 3636 3675 3635 
3604 77 3638 3640 3677 3679 41 85 3643 
81 3648 3644 3647 3649 3652 3687 3689 50 
3656 3691 54 97 3655 3660 3695 62 3664 
3665 3666 3668 3705 109 3670 3672 3711 3674 
3676 3715 78 3678 3680 3717 3683 3688 3723 
3684 89 129 3686 3692 90 133 3696 3731 
94 3700 3735 3699 3703 3739 141 98 3704 
3741 3743 3707 3706 3708 3745 3747 3710 3712 
3749 3751 113 3714 3716 3719 157 3718 3720 
3759 3721 3722 3728 126 3727 3726 3732 3767 
3769 3736 3771 134 3734 3740 3777 181 138 
142 3738 3744 3779 146 3748 3787 3750 3752 
3753 3755 3754 3756 3795 3757 197 3761 3724 
3758 3760 3799 3763 3765 3768 169 166 3772 
3807 3809 173 170 3770 3776 3775 3774 3780 
3815 221 3783 178 3778 3784 3819 182 186 
3788 189 190 3791 3792 3794 3796 3835 237 
3764 3801 3800 3837 3802 3803 3808 249 3806 
3812 3810 3811 3816 3851 3817 3820 3814 257 
222 3818 3822 3823 3824 226 3827 3828 3831 
3832 234 233 273 3833 3834 3836 3873 3875 
238 3804 3838 3839 3840 3877 3842 3843 3845 
3848 3841 3883 3881 246 3847 3849 3852 3887 
3889 253 3853 3856 3893 254 3854 3855 3857 
3860 3897 262 261 3859 3863 3864 3899 3903 
305 3865 3866 3867 3868 3870 3871 3872 3874 
3876 3915 278 3844 3879 3880 3917 3919 282 
3885 3888 3923 3925 3886 3892 329 290 3890 
3891 3896 297 3894 3895 3900 302 3901 3904 
3939 3943 306 3907 3908 3947 310 3909 3910 
3911 3912 349 3951 313 3916 318 317 357 
3884 3918 3920 3922 3928 3924 3961 326 3926 
3927 3932 369 3967 3931 3936 3971 334 377 
3935 3940 338 3944 381 3979 3983 345 3945 
3948 3985 350 3950 3952 354 3955 3956 3995 
321 358 3959 3960 397 3997 3999 3963 3965 
3968 3607 3609 3972 3611 370 373 3973 3976 
374 3615 3974 3975 3980 382 3619 3623 3978 
3982 3984 3625 3627 3987 3988 3631 3629 390 
3989 3991 3992 393 394 3633 3993 3996 3639 
398 3964 3637 4000 
type 1 4000 int
1 1 1 1 1 1 1 1 1 
1 1 1 1 1 1 1 1 1 
1 1 1 1 1 1 1 1 1 
1 1 1 1 1 1 1 1 1 
1 1 1 1 1 1 1 1 1 
1 1 1 1 1 1 1 1 1 
1 1 1 1 1 1 1 1 1 
1 1 1 1 1 1 1 1 1 
1 1 1 1 1 1 1 1 1 
1 1 1 1 1 1 1 1 1 
1 1 1 1 1 1 1 1 1 
1 1 1 1 1 1 1 1 1 
1 1 1 1 1 1 1 1 1 
1 1 1 1 1 1 1 1 1 
1 1 1 1 1 1 1 1 1 
1 1 1 1 1 1 1 1 1 
1 1 1 1 1 1 1 1 1 
1 1 1 1 1 1 1 1 1 
1 1 1 1 1 1 1 1 1 
1 1 1 1 1 1 1 1 1 
1 1 1 1 1 1 1 1 1 
1 1 1 1 1 1 1 1 1 
1 1 1 1 1 1 1 1 1 
1 1 1 1 1 1 1 1 1 
1 1 1 1 1 1 1 1 1 
1 1 1 1 1 1 1 1 1 
1 1 1 1 1 1 1 1 1 
1 1 1 1 1 1 1 1 1 
1 1 1 1 1 1 1 1 1 
1 1 1 1 1 1 1 1 1 
1 1 1 1 1 1 1 1 1 