# vtk DataFile Version 4.0
Generated by LAMMPS
ASCII
DATASET POLYDATA
POINTS 4000 float
4.51912 -0.396626 3.57745 6.51056 -0.694742 1.66009 4.37514 -2.40073 1.6127 
6.80921 1.38025 -0.302954 4.73551 -0.303185 -0.423179 8.76385 1.0597 1.69641 
10.6788 -1.15704 1.69936 10.4747 0.943911 -0.485932 8.15411 -0.736088 -0.474442 
12.5586 0.605962 1.60993 14.3499 -1.71623 1.625 12.3668 -1.59015 3.78347 
14.6953 0.020778 -0.521705 16.5557 -0.174248 1.64127 18.2847 -2.47482 1.39298 
18.6286 -0.706187 3.54627 20.3913 43.0909 40.9359 16.3765 -2.17592 41.0979 
20.6237 -0.707444 1.20613 24.582 -1.25166 1.38891 22.5991 42.8534 1.53862 
22.7216 0.981706 1.38484 20.8233 1.16106 -0.632612 28.6008 -1.82996 1.35888 
26.8722 0.589995 1.42013 28.7936 0.402967 3.47392 26.5611 -1.53253 3.38426 
26.6033 -1.52712 41.0232 28.7435 0.290427 41.1203 30.7167 0.0133692 1.32134 
32.6786 -2.26893 1.52456 33.0866 -0.292317 3.37192 30.8911 -2.01747 3.5557 
37.7141 -0.214732 1.61516 34.8475 -0.700299 1.19469 34.7765 42.9935 3.45037 
4.74255 1.61525 1.74685 2.94421 4.01968 1.50334 5.05884 3.60994 -0.265574 
7.06374 3.34453 1.64182 7.25585 5.5275 -0.134562 4.95687 3.86674 3.63498 
7.2243 5.45647 3.63848 9.15706 4.98809 1.80275 10.7086 2.77836 1.78802 
11.234 4.75193 3.6425 8.84979 3.03677 3.76798 8.806 3.23448 -0.40975 
15.0426 2.21427 1.6904 13.1869 4.42183 1.47439 13.0536 2.40102 3.58575 
15.2998 4.08554 3.56991 12.7992 2.4552 -0.407997 18.8851 1.28616 1.60703 
17.3756 3.69575 1.53952 16.962 1.91282 3.55539 16.8529 1.69024 41.1115 
19.0279 3.33336 -0.573535 21.0278 3.18602 1.36334 23.3839 5.06879 1.32721 
21.3762 5.23993 41.0456 23.0051 2.78752 41.1273 25.1098 2.60897 1.31449 
25.4422 4.97927 3.36009 27.1306 4.71311 1.19292 26.7502 2.62651 3.42881 
25.2753 4.76499 41.0528 33.0988 1.62776 0.896572 31.0037 1.99068 3.31982 
28.8867 2.39948 1.43374 29.1942 4.1784 3.37182 31.3177 3.9275 1.15147 
2.74653 1.87885 3.67108 36.1643 2.13315 1.5101 34.2455 4.15708 1.55558 
2.95336 1.80098 -0.286958 36.1281 4.17665 -0.314483 4.9813 5.90788 1.56579 
3.08434 6.19924 -0.473165 3.27237 8.02122 1.47169 5.60289 9.68653 1.53728 
5.44892 7.79973 3.7287 7.46621 7.27827 1.59255 11.1036 6.75474 1.59241 
9.56114 9.13137 1.69593 7.46082 9.40297 -0.436998 9.4422 7.17667 3.90514 
7.66015 9.68187 3.721 15.2485 5.98198 1.58276 13.5048 8.14891 1.65481 
13.3753 6.38007 41.0626 19.3573 5.52055 1.45838 17.6235 7.97358 1.47452 
19.8502 9.54669 1.62841 21.6873 7.1395 1.47467 23.6249 9.28166 1.44379 
23.5605 6.97286 3.43363 21.8492 9.10789 3.54996 21.6269 9.20304 40.9642 
25.6064 7.075 1.37435 27.4583 6.56692 3.52232 27.8745 8.44347 1.04001 
25.7327 8.85761 3.61119 32.3959 6.67831 1.46236 29.4569 5.97501 1.07101 
30.5072 8.75083 1.54508 32.5274 8.67044 -0.388917 36.3863 6.16193 1.55276 
36.5951 8.38647 -0.487856 34.663 8.45709 1.38741 34.4384 6.33927 -0.442275 
3.84385 11.922 1.40543 6.19905 13.6494 1.65927 3.9479 14.0248 -0.603123 
3.57872 10.0314 3.63496 4.16752 14.1907 3.47192 5.77147 11.7796 3.63741 
9.82237 11.2497 -0.591591 7.94242 11.3002 1.56016 10.0532 13.0321 1.53236 
10.0876 11.0395 3.69006 8.07485 13.2231 3.77401 15.7822 10.0764 1.37117 
13.6537 10.3477 -0.266977 11.8079 10.9049 1.50223 14.125 12.5161 1.34305 
13.8732 10.4534 3.47997 18.1317 11.8835 1.54611 20.0465 11.6699 3.52537 
18.3718 13.938 3.47427 20.5589 13.5655 1.30576 21.8927 11.2083 1.30254 
23.9716 11.1118 3.42666 24.2591 13.2048 1.17567 22.4134 13.3751 3.30724 
25.8807 10.7272 1.36595 28.7748 11.131 1.71548 27.0876 13.4763 1.5924 
28.895 13.2716 -0.426303 29.1619 13.2008 3.53972 32.6715 10.8689 1.51027 
30.6128 10.9104 -0.297277 30.8817 13.0032 1.5586 32.8861 12.7963 -0.369653 
36.8098 10.3484 1.44277 35.028 12.709 1.58951 36.8864 12.3316 -0.775484 
4.31972 16.0609 1.38307 6.38515 15.4158 -0.54482 6.48999 17.6253 1.54576 
4.50413 18.0434 40.9812 8.37802 15.4413 1.67644 10.2796 17.1692 1.2935 
10.4265 15.2156 3.51851 8.42525 17.6106 3.5369 12.0888 15.0232 1.36544 
14.467 16.4662 1.3807 14.4938 14.3567 3.52423 12.5599 16.9381 3.26282 
16.1991 14.3129 1.42956 18.6812 15.6397 1.38008 16.7866 18.076 1.35916 
19.1718 17.8829 3.41322 22.3186 15.3725 1.30088 20.8796 15.5152 3.53032 
20.7184 17.5623 1.07302 23.4492 18.0986 1.85893 27.1303 15.5354 -0.401619 
25.4466 15.9061 1.74047 27.5555 17.6612 1.77566 25.4444 17.8469 -0.391427 
29.2101 15.3582 1.59895 31.2436 15.0174 -0.310871 33.228 15.0037 1.63168 
31.3901 17.2147 1.53078 29.2909 17.2817 -0.441425 29.5762 17.4042 3.61305 
37.2645 14.2971 1.36042 35.1219 14.6188 41.1474 33.2257 16.7932 -0.652816 
35.446 16.5853 1.46025 37.4898 16.4085 3.34011 6.61258 19.6494 41.0101 
4.56876 19.966 1.38636 6.83895 21.6906 1.21116 2.98191 22.2369 1.47884 
37.8775 20.2275 41.0327 6.72189 19.7503 3.45948 8.73536 19.3613 1.31533 
10.9418 21.1503 1.57459 10.754 19.0303 3.45524 9.00155 21.2108 3.58111 
12.7143 18.8935 1.43113 15.1037 20.191 1.50646 14.6792 18.43 3.41735 
13.0013 20.8709 3.66386 14.7054 18.396 40.9582 19.1158 19.8961 1.32038 
17.0948 19.9816 3.41203 21.8711 18.2654 3.79817 23.6713 20.3181 -0.18227 
21.8155 20.4105 1.85976 23.9271 22.4513 1.80116 23.8079 20.4283 3.68585 
25.7611 19.823 1.81607 27.5412 19.7882 -0.345939 27.8942 21.9056 1.75466 
25.8848 21.9869 -0.325199 29.8247 19.381 1.4786 31.5612 19.0598 -0.52144 
31.981 21.4118 1.73397 29.8093 21.4871 -0.330262 37.7176 18.3078 1.22691 
33.5876 18.7338 1.44469 35.6048 18.8586 -0.507698 35.6783 20.7031 1.60374 
33.8834 21.0631 -0.489805 35.8103 18.7053 3.40697 5.24431 23.8998 1.40267 
3.38592 24.2204 41.0201 3.34178 26.2355 1.54797 5.49189 25.6921 3.52907 
9.23091 23.3028 1.49552 11.5924 24.8735 1.53825 7.58947 25.7727 1.66726 
7.2887 23.4594 3.54345 11.2977 23.132 3.59683 9.60651 25.3727 3.64762 
13.2892 22.7181 1.7043 15.3913 24.4428 1.4012 15.5262 22.2166 3.35747 
13.6031 24.7739 3.60342 17.3552 22.0157 1.36378 18.1752 25.0908 1.74333 
20.0835 22.7588 1.71945 20.2541 24.6585 -0.473025 22.1201 24.717 1.83732 
23.8052 24.3441 -0.359908 21.803 22.225 -0.337225 22.1663 26.8447 -0.456799 
26.2441 24.1133 1.47661 28.1471 23.7392 -0.536504 24.424 26.3605 1.52909 
28.601 25.6837 1.2859 26.2763 26.1955 -0.49893 30.354 23.5734 1.65851 
32.2537 23.2829 -0.592226 32.4601 25.3383 1.54487 30.5341 25.5513 -0.408554 
34.2046 23.0361 1.59259 36.1875 22.7212 41.308 34.466 25.005 -0.609659 
36.5297 24.5477 1.60622 36.8226 26.7702 -0.438169 5.78657 27.8346 1.60064 
4.02872 30.2181 1.67532 3.83202 28.1855 3.59279 6.12959 29.9685 3.69518 
10.0676 27.1989 1.75302 8.04576 29.5864 1.58948 10.0389 29.324 3.77369 
7.78551 27.6403 3.59147 13.5378 26.7558 1.17988 11.8719 29.0874 1.39091 
14.4304 29.9639 1.62541 11.8918 26.8671 3.54252 16.24 27.1982 1.72758 
16.5252 29.3075 -0.415469 18.4971 29.103 1.48412 18.2484 27.0607 -0.481885 
20.1183 26.6761 1.30535 22.7632 28.709 1.59261 20.5704 29.1184 -0.394461 
22.6907 30.823 41.1745 24.4718 28.6466 -0.593121 26.4958 28.1485 1.47269 
28.6314 27.947 -0.521403 24.8528 30.5535 1.41789 26.7465 30.225 -0.4779 
30.6549 27.5794 1.44982 32.7684 27.231 -0.633225 28.7646 29.9867 1.53699 
32.8668 29.3848 1.43692 30.8663 29.6672 41.1521 34.8587 26.9296 1.48613 
36.9682 28.7263 1.75517 36.6334 26.6772 3.61553 6.53702 31.8667 1.497 
6.72094 33.9244 3.43482 4.58764 34.085 1.52874 4.32729 32.2411 3.60589 
10.2473 31.5799 1.40001 8.4843 33.572 1.28149 8.39287 31.5764 3.48025 
11.0843 34.6107 1.61538 10.9958 32.3015 3.88512 12.8844 32.3052 1.70831 
15.0354 31.7235 -0.433126 14.974 34.0034 1.48557 13.146 34.1249 -0.409085 
12.9921 34.1181 3.72827 16.7329 31.664 1.55591 18.7336 33.4093 1.4787 
18.6701 31.4682 -0.647015 17.0037 33.6836 3.57915 16.9178 33.7065 -0.752997 
20.7294 30.9722 1.37392 23.0594 32.8369 1.41605 20.7017 33.3385 -0.339802 
21.1102 32.9138 3.55425 23.2058 34.8649 -0.520995 27.0737 32.2338 1.47502 
24.881 32.5993 41.1143 25.4811 34.571 1.47294 27.4906 34.3163 -0.535893 
28.9708 31.9757 41.0797 29.4317 33.8402 1.4246 31.15 31.6208 1.63353 
33.4233 33.2581 1.59753 31.3603 33.4266 -0.530648 33.227 31.3022 -0.525264 
35.2263 31.0325 1.65956 37.479 32.6469 1.62595 6.85447 35.9129 1.15562 
5.0903 38.2542 1.33888 4.7654 36.0886 3.28996 3.23925 38.4694 3.43218 
9.52492 36.6264 1.52222 7.63001 38.8566 1.54295 9.69148 38.534 3.58811 
9.69404 38.5214 -0.352617 11.6949 38.4932 1.61331 11.4642 36.5787 -0.445899 
13.4759 36.3034 1.61294 15.724 38.1408 1.52513 15.0812 36.0555 -0.728792 
13.5696 38.2122 -0.438945 17.0071 35.8396 1.32406 19.5844 37.5019 1.45036 
17.5017 37.7135 3.47028 19.1818 35.4766 3.46933 17.2951 37.6759 40.9393 
18.9533 35.5226 -0.489205 21.2878 35.0263 1.62588 23.5039 36.6489 1.50357 
21.8977 38.9382 1.57853 21.5061 36.8554 -0.557688 23.8373 38.522 40.9605 
27.7397 36.1833 1.37716 27.9216 38.0666 40.8513 26.0332 38.4546 1.21485 
25.7361 36.4819 -0.554618 31.7335 35.6141 1.23915 29.8537 37.8138 1.30313 
29.8715 35.8022 41.0276 32.1277 37.5051 40.97 2.74887 36.6435 1.31264 
33.7189 35.2907 41.1021 34.0888 37.3873 1.38462 35.7944 35.1969 1.40081 
36.4311 38.9646 1.32876 6.07684 41.2507 1.67134 3.29047 40.7836 1.23694 
6.23821 43.1981 3.66535 6.39041 -2.61789 -0.411098 9.99681 40.5778 1.47018 
8.29361 42.927 1.62462 8.03415 41.0405 3.6337 8.00138 40.9823 -0.390494 
10.0231 42.9378 -0.500414 13.7254 40.1805 1.54108 11.8393 40.4059 3.53933 
12.2781 42.3661 1.73058 13.9958 41.8598 3.70674 13.9963 42.1815 -0.483216 
11.9581 40.5826 -0.420845 18.0024 39.6583 1.35107 16.1616 41.7028 1.44686 
20.3144 41.3386 1.27824 18.1779 41.5544 3.43931 15.7756 39.9192 41.1499 
18.1067 41.4751 41.0318 19.9247 39.1813 -0.59999 24.1109 40.5327 1.4246 
24.5069 42.5418 41.0872 22.248 40.9099 -0.554454 26.5248 42.3762 1.24933 
28.2846 40.1828 1.12862 26.3659 40.2363 40.934 28.4664 42.1901 40.8238 
30.4024 41.9011 1.30914 32.1476 39.5181 1.4547 30.3712 39.8186 -0.677347 
34.2487 39.2804 3.29717 36.6838 42.973 1.06968 34.3833 41.2974 1.35631 
36.6453 40.9089 3.28732 6.82246 1.42476 3.64958 6.60627 1.41692 7.43975 
6.36109 -0.55066 5.56637 4.25465 -2.40744 5.43829 37.6826 -0.249519 5.58923 
[...]
POINT_DATA 4000
FIELD FieldData 6
id 1 4000 int
405 7 3 6 2 12 11 10 9 
16 15 413 14 20 19 418 21 17 
24 28 23 63 61 32 67 469 426 
26 30 36 35 434 430 4 40 437 
8 43 45 47 46 445 446 52 51 
450 449 49 55 56 453 454 53 59 
60 457 57 58 64 103 101 62 68 
505 72 466 66 75 473 71 470 76 
402 79 80 41 78 48 42 83 88 
485 87 91 92 86 489 486 95 96 
93 99 100 139 104 108 502 541 102 
107 509 112 506 115 111 116 114 44 
81 119 117 123 128 122 482 522 525 
129 127 132 529 526 135 133 131 136 
533 140 538 577 144 143 545 148 542 
147 151 152 150 553 120 153 155 157 
84 159 121 163 165 168 162 167 172 
569 566 171 176 573 570 175 179 180 
578 183 581 184 188 189 187 191 186 
156 154 160 195 193 593 124 158 197 
199 561 205 203 208 204 201 605 207 
212 609 606 211 215 613 610 174 219 
617 582 225 223 227 586 192 190 231 
229 196 194 235 233 164 200 198 239 
237 598 243 241 244 642 247 251 248 
645 649 646 216 255 614 653 220 259 
224 261 228 226 222 265 232 230 267 
271 269 236 234 275 273 240 238 277 
279 278 283 284 681 682 252 287 689 
685 256 291 295 650 260 297 264 258 
263 268 262 305 266 272 270 307 309 
276 274 311 315 313 280 319 678 288 
725 323 721 292 327 686 331 690 296 
294 300 333 694 299 304 301 698 298 
303 308 302 702 345 312 306 347 349 
310 351 316 355 353 314 320 359 328 
363 722 761 332 367 730 369 336 330 
335 340 337 334 339 344 738 741 338 
341 343 348 383 342 385 352 389 387 
346 356 391 350 393 324 354 395 360 
399 368 364 766 5 371 372 769 366 
370 375 773 376 774 374 373 379 380 
384 778 377 378 381 388 25 382 27 
392 386 29 31 396 390 794 39 400 
798 406 806 407 768 403 409 410 412 
411 810 414 416 415 814 813 417 420 
419 817 818 421 461 422 424 463 822 
465 428 432 467 869 471 436 401 440 
438 439 408 443 448 447 845 846 451 
849 452 455 456 853 458 459 460 499 
462 501 901 464 503 862 468 507 474 
472 475 476 477 441 404 479 841 442 
483 488 885 487 889 492 886 491 493 
495 490 890 494 496 893 497 498 897 
500 898 539 941 504 902 543 510 508 
511 512 513 480 515 517 917 478 481 
444 519 882 523 925 528 922 527 532 
926 535 530 531 536 537 937 534 540 
579 544 548 549 516 546 547 551 953 
514 520 557 555 484 518 918 521 559 
921 562 563 965 565 568 962 567 572 
571 576 575 574 580 974 585 583 552 
550 589 591 950 989 554 556 560 595 
954 993 558 524 597 599 958 564 602 
603 604 601 1005 1002 1001 607 608 612 
1006 611 1010 616 615 584 621 619 588 
587 627 986 592 590 629 631 990 1029 
594 596 633 635 994 1033 600 637 639 
998 1037 641 643 644 1041 647 648 652 
1045 1049 1046 651 655 618 620 623 657 
624 1022 622 625 628 626 1025 665 667 
1065 630 632 1030 669 671 1069 634 636 
675 673 1034 1073 638 640 677 679 1038 
1077 683 684 687 691 688 1089 1085 654 
693 656 660 661 659 664 1061 658 1058 
705 662 663 668 1062 666 1066 670 672 
707 1109 709 1070 674 676 715 711 713 
1113 1074 680 717 719 1078 723 759 724 
729 692 727 696 697 695 700 1097 1094 
699 701 704 1098 745 703 708 1102 1145 
706 712 1106 749 747 710 1110 716 753 
751 714 755 757 718 720 758 1157 728 
799 726 733 731 732 1130 734 737 1133 
735 736 1137 740 1134 739 744 1141 1138 
742 785 743 748 1142 783 746 752 789 
1146 787 750 793 756 791 754 795 797 
760 800 765 762 763 767 770 772 1170 
1169 771 775 776 1174 1173 777 781 1177 
779 780 1178 782 425 423 784 788 429 
786 427 792 829 790 433 431 796 764 
435 805 803 807 1206 809 812 811 1210 
1209 816 815 1213 1214 820 819 1218 1217 
821 861 824 828 863 865 826 832 867 
830 871 836 873 801 834 804 840 838 
808 843 848 847 850 1246 851 852 1249 
1250 854 1253 855 856 1254 857 858 859 
860 1258 1257 864 903 905 866 909 868 
872 907 877 875 870 876 802 879 842 
1242 883 888 1285 887 891 892 1289 1286 
894 1290 1293 895 896 899 1297 900 939 
1298 904 943 906 945 908 912 880 913 
911 874 915 881 878 844 919 1281 923 
928 1325 1322 1282 929 927 932 1326 1329 
933 935 931 930 1330 936 934 977 938 
940 979 942 944 948 947 910 949 951 
914 916 920 957 955 1357 884 1318 959 
1321 963 1365 968 1362 969 1369 966 967 
972 1366 971 973 970 976 1370 978 975 
980 981 946 983 985 987 984 952 991 
956 960 1354 995 1393 924 997 961 1361 
999 1358 1397 964 1003 1004 1401 1405 1402 
1009 1007 1008 1012 1406 1013 1011 1016 1017 
1015 1019 1014 1021 982 988 1023 1027 992 
1390 1429 1031 996 1035 1394 1433 1000 1039 
1398 1437 1043 1042 1047 1048 1052 1445 1053 
1055 1051 1050 1018 1020 1024 1059 1026 1028 
1426 1067 1465 1032 1071 1430 1469 1036 1075 
1473 1434 1040 1079 1438 1477 1044 1081 1083 
1082 1084 1086 1087 1088 1054 1057 1056 1091 
1060 1064 1063 1068 1462 1466 1072 1470 1107 
1509 1076 1111 1115 1513 1474 1080 1117 1119 
1517 1121 1122 1123 1124 1125 1092 1127 1090 
1093 1095 1096 1100 1101 1099 1498 1501 1104 
1105 1103 1108 1505 1502 1545 1149 1506 1112 
1147 1549 1510 1151 1153 1116 1553 1114 1155 
1118 1120 1159 1161 1158 1128 1163 1126 1129 
1131 1132 1136 1135 1534 1140 1537 1139 1144 
1538 1541 1185 1143 1148 1542 1183 1585 1189 
1152 1589 1187 1546 1550 1150 1156 1191 1193 
1197 1154 1195 1160 1199 1166 1162 1165 1168 
1164 1167 1171 1172 1570 1573 1175 1176 1574 
1181 1577 1180 1179 1184 1581 1578 1182 825 
823 1188 1186 827 1192 1586 1190 833 831 
1196 839 835 1194 1198 837 1200 1202 1205 
1208 1204 1212 1610 1207 1211 1216 1215 1614 
1613 1220 1219 1221 1265 1222 1261 1224 1228 
1263 1269 1226 1267 1232 1626 1230 1234 1236 
1235 1238 1240 1279 1239 1245 1247 1243 1646 
1649 1251 1252 1650 1653 1255 1256 1259 1260 
1658 1299 1301 1262 1264 1303 1701 1305 1266 
1271 1268 1272 1666 1270 1274 1273 1275 1276 
1277 1241 1244 1280 1248 1283 1288 1685 1291 
1287 1689 1292 1686 1294 1295 1296 1694 1697 
1300 1339 1302 1341 1705 1304 1308 1702 1309 
1307 1306 1312 1311 1313 1315 1310 1317 1316 
1278 1319 1682 1323 1328 1725 1729 1327 1332 
1726 1333 1335 1331 1730 1336 1337 1334 1338 
1377 1340 1344 1345 1343 1342 1348 1745 1347 
1349 1346 1352 1314 1351 1355 1353 1320 1284 
1721 1359 1363 1368 1762 1722 1765 1367 1769 
1372 1766 1373 1371 1376 1374 1375 1379 1381 
1384 1383 1385 1382 1388 1350 1387 1391 1389 
1356 1360 1395 1324 1758 1797 1399 1761 1403 
1805 1364 1404 1802 1801 1409 1407 1408 1412 
1806 1413 1410 1411 1415 1378 1417 1380 1419 
1418 1421 1423 1425 1424 1386 1392 1427 1431 
1396 1794 1435 1833 1400 1798 1439 1837 1441 
1443 1442 1444 1449 1451 1447 1448 1446 1414 
1453 1416 1455 1457 1420 1459 1461 1422 1428 
1463 1467 1432 1830 1471 1869 1436 1475 1873 
1834 1440 1479 1838 1877 1482 1481 1483 1484 
1485 1489 1452 1487 1493 1450 1454 1491 1456 
1495 1458 1460 1464 1499 1468 1503 1905 1866 
1472 1870 1507 1511 1909 1476 1874 1913 1515 
1478 1480 1519 1917 1878 1521 1488 1525 1523 
1486 1492 1529 1527 1494 1490 1496 1531 1497 
1500 1504 1508 1902 1945 1906 1512 1910 1547 
1949 1514 1516 1555 1914 1551 1518 1557 1520 
1559 1565 1522 1528 1561 1563 1530 1526 1532 
1567 1533 1535 1536 1540 1539 1941 1544 1938 
1543 1548 1942 1985 1946 1552 1587 1989 1950 
1593 1556 1591 1554 1558 1597 1524 1595 1560 
1201 1203 1562 1568 1564 1566 1569 1571 1572 
1575 1576 1974 1977 1580 1579 1978 1584 1981 
1225 1582 1583 1223 1588 1229 1227 1986 1592 
1629 1233 1590 1231 1596 1594 1599 1237 1598 
1600 1641 1602 1604 1643 1606 1609 1608 1612 
1611 1616 2014 1615 2017 1618 1617 1620 1619 
2018 1665 1661 1622 1624 1628 1663 1630 1632 
1631 1634 1636 1633 1635 2033 1677 1638 1640 
1679 1637 1642 1645 1648 1644 1647 1651 1652 
2050 1654 1655 1656 2053 1657 1659 2057 1660 
1699 1662 1664 1668 2065 2062 1669 1671 1667 
1672 1670 2070 1673 1675 1674 1676 1717 1678 
1680 1719 1683 1688 1687 1690 2089 1692 2086 
1691 2090 1693 1695 1696 1698 1700 1704 2101 
1703 1708 2105 2102 1709 1707 1706 1712 2106 
1713 1711 1715 1710 1714 1716 2114 1681 1684 
1720 1723 2125 1728 2122 2129 1727 1732 2126 
1733 1734 1735 1731 2133 1736 2130 1737 1741 
2098 1739 1744 2141 1743 1742 1748 2145 2142 
1749 1747 1746 1752 2149 2146 1753 1751 1750 
1756 1755 1718 1759 1757 1760 2158 2165 1763 
1768 2162 1767 2169 1772 2166 1773 1770 1771 
1775 2134 1738 1740 1779 1777 1781 1778 2138 
1783 1785 1782 1784 1788 1789 1787 1786 1792 
2189 1754 1791 1793 1795 1724 1764 1799 2161 
2205 1803 1808 1804 2202 2201 1809 1807 1811 
1813 1776 1774 1815 1817 1780 1819 1818 1820 
1821 1823 2221 1822 1824 1825 1790 1827 1831 
1828 1829 1796 1835 1800 2198 2237 1839 1841 
1842 1843 1844 2241 1845 1810 1849 1812 1847 
1851 1814 1816 1855 1853 1858 1857 1859 1860 
2257 2258 1861 1863 1865 1864 2261 1826 1832 
1871 1867 1836 2234 1875 2273 1840 2238 2277 
1879 1881 1885 1848 1883 1846 1852 1889 1887 
1850 2289 1854 1856 1893 1891 2293 2254 1897 
1895 1899 1900 2294 1862 1868 1901 1903 1872 
2270 1907 2309 1911 1876 2274 1915 2313 1880 
1919 2317 1882 1888 1923 1925 1929 1886 1892 
1927 2329 2286 1890 1931 1896 1933 2290 2333 
1894 1898 1935 1937 1939 1904 1908 1943 2345 
1912 2306 1947 2349 1953 2310 1916 1955 1951 
1957 1918 1884 1920 1922 1961 1928 1963 1965 
1926 1932 1969 1967 1934 1930 1936 1971 1940 
1944 2381 1948 2342 1983 2385 1952 2346 1987 
2389 1993 1954 1956 1991 2354 1921 1924 1959 
1958 1960 1999 1962 1605 1603 1968 1964 1601 
1966 1970 1607 1972 1973 1975 1976 1980 1979 
1984 2378 1621 1625 1982 1623 1988 2382 1627 
1992 2386 2390 1990 1994 1995 1996 2393 1639 
1997 1998 2000 2398 2041 2002 2043 2004 2008 
2045 2006 2012 2047 2010 2016 2013 2020 2059 
2019 2061 2022 2024 2028 2425 2027 2422 2026 
2426 2030 2029 2032 2031 2429 2034 2036 2434 
2035 2038 2077 2040 2079 2037 2042 2044 2083 
2081 2049 2046 2048 2052 2051 2054 2055 2056 
2058 2060 2064 2461 2465 2063 2068 2462 2066 
2069 2469 2071 2067 2072 2470 2466 2073 2075 
2473 2074 2076 2474 2078 2117 2080 2119 2477 
2517 2082 2085 2088 2521 2084 2091 2087 2092 
2490 2093 2094 2095 2493 2096 2497 2097 2458 
2099 2104 2501 2103 2108 2502 2109 2107 2111 
2112 2510 2115 2113 2513 2110 2116 2514 2155 
2118 2120 2157 2159 2123 2128 2124 2127 2131 
2529 2132 2526 2533 2137 2494 2100 2135 2537 
2139 2144 2498 2538 2541 2143 2148 2545 2542 
2147 2152 2546 2150 2151 2153 2156 2121 2154 
2160 2554 2597 2163 2168 2565 2562 2167 2530 
2171 2569 2136 2140 2173 2175 2534 2573 2179 
2181 2177 2178 2184 2581 2577 2578 2185 2183 
2585 2182 2582 2188 2187 2186 2192 2193 2191 
2190 2196 2593 2590 2195 2199 2197 2200 2207 
2203 2204 2170 2172 2209 2211 2570 2213 2174 
2176 2215 2574 2218 2180 2217 2219 2617 2618 
2222 2223 2225 2625 2224 2228 2621 2629 2227 
2229 2226 2232 2626 2231 2194 2233 2235 2164 
2601 2239 2208 2206 2245 2243 2602 2606 2645 
2212 2210 2610 2251 2247 2249 2649 2214 2216 
2255 2253 2614 2653 2220 2259 2260 2658 2263 
2264 2262 2265 2267 2268 2269 2230 2236 2271 
2275 2673 2240 2279 2641 2242 2248 2283 2285 
2642 2685 2246 2252 2287 2250 2291 2646 2650 
2256 2295 2693 2297 2299 2298 2300 2301 2303 
2305 2304 2266 2272 2311 2307 2276 2713 2315 
2244 2278 2280 2281 2678 2325 2282 2288 2323 
2682 2725 2292 2327 2296 2331 2336 2690 2335 
2337 2339 2334 2340 2734 2302 2308 2341 2343 
2312 2749 2347 2314 2353 2710 2316 2320 2351 
2714 2717 2321 2318 2284 2319 2757 2365 2322 
2328 2363 2326 2332 2369 2367 2373 2330 2371 
2730 2773 2338 2377 2375 2379 2344 2348 2785 
2383 2352 2387 2750 2350 2355 2356 2753 2324 
2361 2359 2358 2357 2360 2399 2001 2362 2003 
2005 2368 2366 2009 2007 2372 2409 2015 2374 
2370 2011 2376 2380 2384 2778 2021 2025 2023 
2388 2782 2786 2392 2391 2790 2394 2395 2396 
2794 2397 2797 2364 2039 2400 2402 2441 2404 
2443 2841 2445 2449 2408 2406 2412 2447 2849 
2414 2410 2451 2810 2418 2457 2420 2424 2821 
2428 2825 2423 2822 2427 2430 2432 2830 2431 
2433 2436 2834 2833 2435 2438 2440 2479 2877 
2838 2837 2481 2442 2444 2881 2842 2483 2485 
2446 2450 2448 2885 2487 2846 2452 2454 2453 
2455 2456 2459 2464 2861 2463 2468 2467 2866 
2862 2471 2472 2869 2870 2475 2873 2476 2874 
2515 2478 2480 2878 2519 2917 2482 2523 2484 
2921 2882 2489 2486 2488 2492 2491 2460 2495 
2897 2499 2504 2858 2901 2505 2503 2905 2902 
2508 2509 2506 2507 2909 2511 2512 2906 2910 
2516 2914 2555 2913 2518 2520 2918 2557 2559 
2957 2525 2522 2528 2524 2496 2527 2531 2933 
2500 2535 2937 2894 2539 2941 2544 2898 2938 
2945 2543 2942 2548 2549 2547 2949 2552 2946 
2553 2550 2551 2953 2556 2950 2558 2599 2595 
2560 2958 2954 2997 2561 2563 2567 2564 2532 
2571 2930 2969 2536 2934 2540 2575 2977 2973 
2579 2981 2580 2978 2584 2583 2985 2588 2982 
2589 2587 2989 2586 2592 2986 2633 2591 2993 
2596 3033 2990 2598 2594 2994 2635 2600 2568 
2566 2605 2603 2607 2966 2962 3005 2572 2611 
2609 2970 3009 2613 2576 2615 2974 3013 2619 
3017 2620 3018 2623 3025 2624 2622 2628 3021 
3022 2627 3029 2632 3026 2630 2631 2634 2636 
2637 2639 2608 2643 3006 3045 2612 2651 2647 
2616 3014 3053 2655 2657 2659 2660 3057 2661 
2663 2664 2662 3062 2669 2667 2665 3069 2668 
2666 3066 3065 2671 2675 2672 2638 2677 2604 
2640 2679 3041 2648 2683 3085 2652 2687 2689 
3089 3046 3050 2654 2656 2691 2695 2694 2697 
2699 2698 2700 2701 2703 2704 2702 3101 3102 
2705 2709 2707 2711 2708 3105 2674 2670 2676 
2680 2644 2681 2719 3078 3081 2688 2723 3125 
3082 2686 2729 2692 2727 3086 2733 2696 2731 
3133 3090 2735 2737 2739 3134 2740 2738 3137 
2741 2743 2744 2745 2706 2712 2747 2715 2716 
2720 3114 3157 2721 2684 2718 2759 3121 3118 
2722 2765 2728 2763 2726 2732 2767 2769 3126 
3169 2736 2771 3173 2776 3130 2775 2777 3177 
2780 2774 3174 2781 2742 2779 2748 2783 2746 
2752 2751 2754 2755 2756 3153 2761 2724 2758 
2760 2799 3197 2762 2401 2403 2764 2405 2768 
2766 2407 2772 3166 2770 2416 2413 2411 3170 
2813 2417 2415 2419 2784 2421 2788 2787 3186 
2789 2792 2791 3189 3190 2793 2795 2796 3194 
3193 2798 2437 2439 2800 3198 2802 2804 2843 
3241 3202 2806 2845 2808 3245 2812 3206 2847 
2853 2851 2816 2814 2820 2824 2826 2828 2823 
3225 2827 3226 2829 2832 3229 2831 3230 2836 
2875 3233 2835 3234 2840 2879 3238 3277 2844 
2883 3242 3281 2848 2852 2887 2893 2850 2857 
2856 2855 3254 2818 2859 3258 2864 3257 2865 
2863 2868 3265 2871 2867 3269 3266 2872 3270 
3273 2876 3274 2880 2919 3278 3317 2884 2923 
2889 2886 2891 2888 2892 3286 2854 2890 2860 
2895 3297 3293 2899 3301 2904 2903 3302 2908 
3305 3309 2907 2912 3306 2915 2911 3313 3310 
2916 3314 2955 2959 2920 3318 3357 2925 2922 
2928 2924 3325 3322 2926 2929 2927 2931 2896 
2900 2935 3337 3333 3298 2939 3338 2944 3345 
2943 2948 3342 2947 3349 2952 3346 3353 2951 
2956 3350 2995 2960 2999 3354 2961 2965 2963 
2967 3362 3365 2932 2971 3330 2936 3334 2975 
3373 2940 2979 3381 2980 3378 3377 2983 3385 
2984 2988 3382 3389 2987 2992 3386 2991 3393 
2996 3390 2964 2998 3037 3000 2968 3003 3007 
3366 3405 2972 3409 3011 3370 2976 3015 3374 
3413 3019 3417 3020 3418 3023 3421 3425 3024 
3027 3429 3028 3426 3032 3030 3031 3035 3036 
3039 3034 3001 3002 3008 3445 3043 3402 3010 
3049 3012 3410 3051 3047 3406 3449 3054 3016 
3414 3055 3453 3454 3059 3457 3058 3060 3458 
3061 3063 3461 3064 3462 3465 3067 3068 3072 
3071 3073 3075 3070 3434 3038 3004 3040 3042 
3048 3442 3083 3485 3052 3087 3446 3489 3094 
3093 3056 3091 3095 3450 3493 3097 3098 3099 
3494 3100 3498 3103 3501 3104 3109 3107 3111 
3108 3106 3074 3076 3077 3080 3079 3044 3119 
3441 3481 3088 3123 3525 3482 3129 3092 3486 
3127 3529 3096 3131 3533 3136 3135 3537 3534 
3140 3139 3141 3143 3142 3138 3144 3110 3112 
3145 3113 3147 3115 3117 3116 3120 3084 3159 
3518 3521 3122 3165 3128 3522 3163 3565 3132 
3167 3569 3526 3530 3573 3171 3176 3175 3179 
3181 3146 3148 3149 3150 3152 3151 3154 3155 
3156 3160 3554 3161 3124 3561 3158 3558 3199 
2801 3162 2803 3168 3562 3164 3201 2805 3205 
2809 2807 3209 3172 3566 2811 2815 3570 2819 
2817 3178 3180 3184 3182 3221 3185 3183 3188 
3187 3192 3191 3590 3195 3196 3594 3593 2839 
3200 3237 3598 3597 3602 3204 3641 3243 3249 
3208 3212 3247 3210 3214 3216 3215 3217 3218 
3220 3219 3222 3224 3228 3227 3232 3231 3630 
3629 3236 3235 3634 3240 3638 3677 3279 3248 
3283 3244 3285 3642 3646 3246 3251 3252 3250 
3255 3253 3256 3654 3261 3259 3260 3264 3658 
3262 3263 3662 3268 3665 3669 3267 3272 3666 
3271 3275 3673 3276 3670 3674 3280 3319 3678 
3717 3282 3321 3288 3284 3287 3682 3289 3292 
3291 3689 3686 3690 3290 3295 3296 3693 3694 
3299 3304 3705 3303 3308 3307 3312 3709 3311 
3713 3315 3316 3710 3714 3355 3320 3718 3323 
3328 3725 3722 3329 3326 3327 3332 3726 3729 
3294 3300 3331 3335 3733 3730 3341 3698 3339 
3737 3738 3741 3344 3343 3745 3348 3742 3749 
3347 3352 3746 3351 3753 3356 3750 3754 3359 
3358 3324 3360 3721 3363 3368 3367 3371 3369 
3769 3336 3734 3375 3340 3379 3380 3777 3778 
3383 3785 3781 3384 3782 3388 3387 3789 3392 
3786 3391 3395 3793 3396 3394 3397 3361 3364 
3399 3403 3404 3407 3802 3372 3770 3411 3809 
3376 3415 3774 3813 3814 3419 3420 3818 3817 
3423 3821 3424 3422 3822 3825 3427 3428 3432 
3433 3431 3430 3435 3398 3400 3437 3401 3439 
3408 3443 3841 3806 3845 3412 3810 3451 3447 
3849 3416 3455 3853 3459 3857 3460 3858 3861 
3463 3464 3468 3469 3467 3471 3466 3436 3475 
3473 3438 3440 3477 3479 3878 3448 3842 3483 
3885 3452 3487 3889 3846 3456 3495 3491 3854 
3850 3893 3497 3499 3897 3500 3894 3503 3505 
3502 3470 3472 3509 3511 3507 3513 3474 3476 
3515 3478 3444 3480 3881 3488 3523 3925 3882 
3492 3527 3929 3886 3531 3490 3496 3933 3890 
3539 3535 3541 3504 3508 3545 3506 3549 3512 
3547 3514 3517 3510 3551 3516 3520 3484 3519 
3559 3921 3528 3965 3563 3922 3961 3532 3926 
3567 3969 3536 3571 3575 3930 3538 3540 3577 
3544 3542 3543 3548 3585 3550 3546 3552 3587 
3553 3555 3556 3557 3957 3524 3560 3958 3599 
3997 3601 3203 3564 3962 3568 3605 3207 3572 
3966 3574 3213 3211 3576 3581 3579 3578 3580 
3584 3586 3582 3223 3583 3588 3589 3591 3592 
3595 3596 3994 3993 3239 3637 3600 3998 3645 
3608 3604 3643 3606 3610 3612 3611 3614 3613 
13 3616 3615 3618 3617 18 3620 3619 3661 
3622 3621 3624 22 3628 3663 3626 3632 3631 
65 3633 34 33 3636 3675 38 77 3640 
3679 3648 3647 3650 50 3649 3652 3651 3653 
54 3655 3656 3657 3659 3660 3699 3664 3668 
69 3667 3672 3671 70 73 74 3676 3644 
3715 3680 85 82 3681 3685 3683 3688 89 
3687 3692 3691 90 94 3695 3696 97 98 
3701 3697 3700 3704 3702 105 3703 3708 3706 
109 3707 106 3712 113 3711 110 3716 3719 
3720 125 3723 3728 126 3727 3732 130 3735 
3731 3736 137 134 3739 141 3744 145 3743 
142 3748 149 3747 146 3752 3751 3755 3756 
118 3757 3684 3759 3765 3763 3762 3768 169 
166 3766 3767 3772 173 170 3773 3771 3775 
138 3740 177 178 3779 3780 185 181 3783 
182 3784 3788 3787 3792 3791 3760 3790 3795 
161 3758 3724 3797 3761 3799 202 3805 3803 
3804 209 206 3807 3808 3811 3776 3815 213 
217 3819 218 3820 221 3823 3824 3828 3829 
3827 3826 3831 3794 3796 3833 3835 3800 3764 
3798 3801 3837 3839 242 3843 3844 245 249 
3812 210 3851 3847 214 3816 3855 253 257 
3859 3860 3865 3863 3862 3867 3830 3832 3869 
3871 3834 3836 3873 3875 3838 3840 3879 3877 
281 3848 285 3883 289 246 3852 3887 250 
254 293 3856 3891 3895 3896 3899 3901 3864 
3868 3905 3870 3866 3872 3907 3909 3911 3874 
3876 3913 3915 317 318 3917 3880 3919 282 
3888 325 3923 329 286 3892 3927 3931 290 
3935 3898 3937 3900 3904 3902 3903 3908 3945 
3943 3949 3906 3912 3947 3914 3953 3910 3916 
3951 3955 357 3884 3918 3920 321 3959 365 
322 3928 3963 361 326 3932 3967 3934 3973 
3936 3971 3940 3938 3939 3944 3941 3985 3942 
3948 3983 3946 3989 3952 3987 3954 3950 3956 
3991 358 397 3924 3960 3999 3603 1 362 
3964 3968 3609 3607 3972 3970 3975 3976 3974 
3978 3977 3981 3979 3980 3984 3625 3982 3623 
3988 3986 3990 3627 3992 3635 394 3995 3996 
3639 398 37 4000 
type 1 4000 int
1 1 1 1 1 1 1 1 1 
1 1 1 1 1 1 1 1 1 
1 1 1 1 1 1 1 1 1 
1 1 1 1 1 1 1 1 1 
1 1 1 1 1 1 1 1 1 
1 1 1 1 1 1 1 1 1 
1 1 1 1 1 1 1 1 1 
1 1 1 1 1 1 1 1 1 
1 1 1 1 1 1 1 1 1 
1 1 1 1 1 1 1 1 1 
1 1 1 1 1 1 1 1 1 
1 1 1 1 1 1 1 1 1 
1 1 1 1 1 1 1 1 1 
1 1 1 1 1 1 1 1 1 
1 1 1 1 1 1 1 1 1 
1 1 1 1 1 1 1 1 1 
1 1 1 1 1 1 1 1 1 
1 1 1 1 1 1 1 1 1 
1 1 1 1 1 1 1 1 1 
1 1 1 1 1 1 1 1 1 
1 1 1 1 1 1 1 1 1 
1 1 1 1 1 1 1 1 1 
1 1 1 1 1 1 1 1 1 
1 1 1 1 1 1 1 1 1 
1 1 1 1 1 1 1 1 1 
1 1 1 1 1 1 1 1 1 
1 1 1 1 1 1 1 1 1 
1 1 1 1 1 1 1 1 1 
1 1 1 1 1 1 1 1 1 
1 1 1 1 1 1 1 1 1 
1 1 1 1 1 1 1 1 1 