# vtk DataFile Version 4.0
Generated by LAMMPS
ASCII
DATASET POLYDATA
POINTS 4000 float
4.15119 2.03266 0.828087 37.7844 0.412061 1.09444 3.95548 0.199331 2.99545 
8.43503 1.93757 1.04204 10.1007 -0.543617 0.965674 6.15858 0.0711234 1.03088 
6.28706 1.84006 2.97912 8.0416 -0.423801 2.96254 10.3485 1.45734 -1.09854 
6.33883 1.95072 41.3587 8.10225 -0.217446 41.4475 12.3311 1.19787 1.00104 
16.5359 0.714778 1.25298 20.5537 0.318604 1.18278 18.3572 -1.70063 1.16998 
20.8671 2.09527 3.15696 20.4661 -2.01668 -0.65678 24.7957 -0.377318 1.19481 
24.3983 42.4991 -0.893341 22.2704 -2.02436 1.27054 22.7181 -0.244359 3.20531 
24.7827 1.73618 3.05512 28.5095 -0.47592 1.08971 26.6345 1.6398 1.18091 
26.6826 42.2701 1.11406 28.7334 1.49586 3.21311 28.5604 42.0942 3.33557 
26.531 -0.33232 41.3576 31.1951 0.219351 0.477048 32.9506 -2.11672 0.459941 
33.208 0.104435 2.78649 37.7197 -1.74489 2.93791 34.9078 0.0641319 0.469364 
36.583 42.5398 0.305933 36.0299 2.50223 1.18825 34.8418 42.5849 2.51759 
34.189 3.05853 3.15447 36.0056 0.678486 3.16763 2.63778 4.33322 1.015 
4.52796 6.42929 1.28279 4.35213 3.83759 41.1881 2.71574 6.27285 41.4468 
6.18009 4.14843 1.14168 8.6715 5.62334 1.04927 8.46264 3.71649 -0.892203 
10.6639 3.55493 1.25233 10.9283 5.36622 -0.733544 6.45238 5.93867 -0.820688 
14.691 2.85781 1.09928 12.9573 4.88218 1.16897 15.2709 6.96252 1.03892 
12.6795 3.05592 3.16283 10.6298 5.3 3.1196 14.9898 4.91364 3.136 
13.043 6.9295 3.12569 18.8168 2.53554 1.06781 17.0011 4.91807 1.03132 
17.1299 6.63314 41.2691 19.1714 6.38505 1.0632 16.7891 2.72561 3.21006 
18.8698 4.53026 3.04029 22.8707 1.78185 1.19482 21.1174 4.29456 1.08137 
24.8639 4.02121 1.13694 23.0372 3.93693 3.18132 21.2666 6.21453 3.09218 
23.2572 6.25589 1.36313 25.3482 5.80003 3.22474 29.3599 2.49926 0.62709 
27.4987 4.68873 0.7379 25.8278 6.99204 0.577724 27.9644 7.15782 2.70055 
26.8576 3.60754 3.21738 29.4564 4.73128 2.68724 33.1354 2.21358 0.520818 
31.5502 4.48598 0.500641 30.536 7.59615 2.98904 32.4612 7.20092 1.13537 
31.2485 2.28719 2.56992 32.3316 5.32827 3.03214 36.702 6.47822 1.01666 
34.4113 4.77108 1.08614 34.8594 6.43068 3.37325 2.43708 8.46721 1.28305 
4.85995 10.0969 1.22279 4.5589 8.21314 -0.780268 6.73162 7.80608 1.30258 
11.0451 7.48739 1.05029 8.94369 9.42312 1.11832 6.82534 9.71814 -0.804107 
8.85901 7.49171 3.20129 11.1014 9.24326 3.11666 6.9998 9.82026 3.17706 
9.27779 11.5864 -0.813864 11.1528 9.3512 -0.996634 13.2508 9.09031 1.10136 
15.3371 8.9775 2.8792 17.2608 8.6841 0.765152 19.6176 10.6303 0.865769 
17.7503 10.6974 2.77143 21.4367 8.35881 0.828814 22.3379 11.2872 0.345521 
24.1997 9.2367 0.362412 23.3973 8.07693 3.12405 23.8678 11.4105 2.55129 
27.7695 9.19161 0.453454 25.9323 11.5981 0.670699 25.9576 9.14771 2.64758 
26.8915 12.0142 3.09092 29.5807 6.80886 0.445885 28.6576 11.8808 0.983717 
30.5576 9.47424 1.00437 28.5801 9.75292 2.9828 36.8835 8.28342 41.2247 
36.4664 8.45522 3.60818 36.4035 10.7086 1.64362 34.9901 8.29179 1.10589 
33.2416 10.2959 1.36345 35.2257 10.3392 -1.04848 2.97345 12.2304 1.62244 
5.10534 12.0999 -0.627885 5.45618 13.7646 1.61823 3.30669 13.9618 3.76904 
7.35512 11.7017 1.159 9.69064 13.4084 1.18595 9.45529 11.5594 3.12997 
7.60707 13.6267 3.30267 11.5614 13.3031 -0.906472 15.5301 10.9076 0.759335 
13.4105 11.2266 41.3326 11.4258 11.2765 1.16139 13.69 13.0653 1.0701 
16.2134 14.978 1.16539 14.1434 14.9808 3.06016 11.7771 13.2827 3.05399 
15.9307 13.1509 41.3707 17.8386 12.6178 0.856135 20.4643 13.3878 0.304795 
24.2846 13.5662 0.598593 22.2304 13.7391 2.67892 22.3611 15.5651 0.627913 
23.2177 16.2371 3.36197 20.545 15.8378 2.7569 27.0902 14.1769 0.964594 
25.1215 16.2082 0.898506 25.0446 14.1098 3.21662 31.625 12.4629 1.57795 
29.8879 14.7052 1.42276 30.7591 15.1292 4.16683 31.8725 14.425 -0.687666 
34.4581 12.745 1.78974 36.6117 12.5661 -0.193845 37.0029 14.573 1.81209 
32.8502 14.9898 1.8633 33.3988 12.341 -0.83803 32.89 13.0598 4.08618 
35.1005 14.7002 3.96491 34.8609 14.8847 -0.0707978 3.44292 15.9361 1.8922 
5.61708 15.8485 -0.301628 5.98931 17.7421 1.65374 3.71043 18.0372 -0.0745639 
4.15345 18.0763 3.70029 7.69427 15.5853 1.341 12.043 15.3526 1.24458 
10.0277 17.4373 1.30214 8.01573 17.8299 -0.610617 9.76972 15.3085 -0.65091 
14.0739 15.143 -0.779909 14.1832 17.1482 1.29748 12.1411 17.4239 -0.613601 
14.6002 17.8255 40.9054 12.8726 20.1722 41.0849 18.709 15.8441 0.292538 
16.6576 17.6857 0.616044 18.6548 17.8378 2.67854 18.7845 19.903 0.685941 
17.9597 14.5555 3.10842 18.6618 17.8845 41.0393 16.9501 19.9915 40.966 
19.8293 20.7338 3.53723 20.5723 17.9159 0.632697 23.3514 18.3557 1.1066 
21.4107 18.4108 3.45502 21.6659 20.5328 1.37863 27.8773 16.8811 1.36495 
25.8981 19.3595 1.52059 28.2323 19.0623 -0.356808 31.0893 17.133 2.17038 
30.1513 16.6725 -0.53195 29.578 19.5599 2.2067 31.6101 19.0708 4.00134 
31.5768 19.1562 0.120222 33.1325 16.9585 -0.100866 37.6613 18.3899 2.03389 
37.4014 16.3795 -0.221393 35.3391 16.7551 1.89065 33.5247 18.8617 2.04301 
35.5583 18.5881 4.07378 33.8637 20.9414 3.8648 35.6621 18.6236 0.105049 
6.19784 20.0455 -0.336705 4.10208 20.203 1.69671 6.35844 22.0637 1.54699 
4.49994 22.1002 3.62399 4.88866 24.3097 1.62761 6.42101 19.8607 3.45734 
4.48684 22.531 -0.638065 8.29755 19.6068 1.54057 10.4625 21.7859 1.34912 
8.44824 21.7756 3.41628 8.423 21.7731 -0.608393 9.49986 24.7123 41.1955 
15.186 19.826 0.612848 12.3522 19.4117 1.23199 13.161 22.3241 0.690574 
15.0181 24.2826 0.683208 15.105 22.1401 2.9564 14.9132 22.0856 40.9026 
16.7932 22.0967 0.610228 17.9617 22.7367 3.43808 17.8903 24.6749 1.46712 
15.9874 24.8473 3.46119 19.069 21.8371 40.9944 17.0937 24.0344 41.0743 
19.9589 22.806 1.43703 22.3054 24.2402 1.54202 23.9751 21.9285 1.36784 
27.7439 21.454 1.85253 25.9975 23.7252 1.76658 26.3272 21.6005 -0.504394 
24.3399 23.8484 -0.531208 29.8579 21.4689 4.1201 31.7024 21.1748 2.05247 
29.9401 23.4205 1.91705 32.4995 25.167 1.66778 29.912 21.27 -0.15697 
35.9764 20.68 1.87064 33.8526 20.7964 -0.147971 2.6148 22.6705 1.60924 
34.2809 22.9328 1.63289 34.6923 25.0428 -0.251357 37.9741 20.297 3.89369 
36.4298 22.7091 -0.226414 2.66915 24.6811 -0.508635 6.79185 26.2138 1.48734 
2.67069 24.5146 3.69518 5.13719 26.2199 3.78982 6.6643 24.2862 -0.63774 
4.89372 26.5246 -0.403933 8.46623 23.714 1.47088 9.51349 26.8809 0.977846 
7.7023 29.0943 0.812968 9.41434 28.9533 41.253 7.53777 26.9071 41.197 
11.4708 24.5123 0.676583 13.4176 26.6458 0.609457 11.7451 29.0456 0.666961 
12.587 29.787 3.28808 15.5635 26.2603 41.1551 11.4435 26.7427 41.2822 
16.357 27.0115 1.38636 16.6565 29.0606 -0.554738 18.6492 28.8168 1.382 
18.4026 26.716 -0.669907 20.5728 26.4774 1.47155 22.722 28.3622 1.56043 
22.5444 26.318 -0.652778 20.7671 28.4872 -0.509992 24.2578 26.1289 1.49565 
28.37 25.5802 1.8105 26.8755 27.7471 1.5907 28.633 27.7356 -0.421469 
29.0484 29.7634 1.60758 26.3339 25.8079 -0.190638 24.6536 28.1904 -0.526615 
30.5885 27.3603 1.65663 32.9703 29.1131 1.87064 30.4616 25.5007 -0.328881 
32.7872 27.3985 -0.236499 2.90061 26.282 1.68118 36.3673 24.7234 1.8008 
34.9148 27.0609 1.84105 37.1683 28.8097 1.61723 37.0444 26.9981 -0.374662 
3.10707 28.9496 -0.817047 5.0017 28.5409 1.45119 5.99896 31.4579 1.0148 
3.91758 31.6355 41.0829 6.32884 33.5535 3.02252 5.87158 29.2066 41.21 
38.0703 33.9417 41.0012 9.6761 31.074 0.636286 8.90539 34.1994 3.30793 
8.03972 33.4559 0.61421 10.7853 34.0468 1.05723 8.02516 31.1452 3.02927 
14.5133 29.5436 1.3038 10.6322 31.7978 3.13976 12.5478 31.895 1.21877 
13.6811 28.6138 41.0813 14.6821 31.46 -0.81841 16.9992 31.3488 1.26651 
14.9563 33.4282 1.25649 19.1676 32.9969 1.29203 17.0805 33.1837 -0.702437 
19.0852 30.7589 -0.676897 20.8467 30.758 1.40565 23.2975 32.4925 1.45051 
21.3097 32.6281 -0.453761 22.9605 30.4423 -0.483339 24.8889 30.1974 1.57702 
26.8552 29.7896 -0.451712 27.3459 31.7534 1.28827 25.1397 31.9534 -0.572536 
30.8626 29.4377 3.72975 31.4067 31.4102 1.53039 30.9988 29.5 -0.386045 
29.2856 31.5891 3.50118 29.2407 31.5676 -0.624262 3.27917 30.7029 1.35569 
35.3104 30.9741 1.65682 37.219 33.1652 1.17374 35.4149 33.551 -1.00585 
37.1857 31.1924 -0.703041 3.99795 33.8503 0.74177 6.19804 35.7725 0.575936 
4.45758 37.8876 0.368676 5.37465 38.6421 2.8347 6.74751 37.6348 40.7382 
4.4808 35.6797 3.0095 8.86864 36.0757 1.03332 9.706 40.2057 0.971027 
7.15029 36.4867 2.95057 13.2419 35.8692 1.03923 11.273 38.0549 0.981617 
13.4952 37.854 -0.830116 13.7283 39.7578 1.09875 11.6564 40.0469 3.05524 
17.4205 35.3128 1.29704 15.6622 37.451 1.26842 19.8912 36.7894 1.37263 
17.7546 37.2421 -0.608645 15.5798 35.4184 -0.730839 21.6565 34.6401 1.47679 
24.0039 36.2611 1.31674 21.8871 36.602 3.46826 21.7045 36.5203 -0.648541 
23.4885 34.4599 -0.614543 25.5599 34.0885 1.40301 27.9173 35.7747 1.20042 
25.8238 35.8607 -0.642618 27.5658 33.5959 -0.622956 25.9731 35.9791 3.19471 
33.651 33.2707 1.48527 31.4848 33.4111 -0.515456 29.5754 33.5124 1.37448 
32.073 35.5116 1.444 33.6589 37.8414 0.985446 33.5162 35.6052 41.5215 
34.0137 35.0085 3.62969 35.7994 32.7712 3.61222 38.1049 35.8636 0.771273 
35.306 35.5968 1.00795 3.76056 -1.84484 0.911321 5.65052 40.6648 0.841256 
3.5188 40.8366 2.79989 2.77497 40.1096 0.337038 7.18099 38.4423 0.899271 
7.85566 42.5914 0.967246 5.82334 42.7656 2.85142 7.6506 40.7242 41.3756 
14.3434 -1.10183 1.11599 11.8618 42.0457 1.12439 13.8252 41.7558 3.13957 
12.2335 -0.789071 2.9472 14.0268 41.7181 -0.791781 17.8306 39.2504 1.2919 
15.9942 41.4042 1.1024 20.2991 40.8313 1.37824 15.6824 39.5011 3.11102 
18.3857 41.0028 -0.746666 15.9701 39.3678 -0.921161 22.2789 38.5694 1.35178 
24.3419 40.6199 1.19301 24.0775 38.1979 3.34842 19.9722 38.837 -0.611025 
24.1052 38.1482 -0.603157 22.319 40.4901 3.25996 22.2704 40.6162 -0.920723 
26.0666 38.065 1.31338 30.4195 37.5424 1.22149 28.373 39.8764 1.2024 
26.322 40.2472 -0.676358 26.2748 40.1072 3.22442 30.408 39.7293 3.34643 
30.3366 42.1701 1.02468 31.8011 39.8385 0.991192 33.8414 39.7251 3.00281 
32.1436 37.4963 3.42184 32.2445 42.0673 3.19802 34.4486 38.4546 40.8198 
[...]
POINT_DATA 4000
FIELD FieldData 6
id 1 4000 int
8 4 405 12 11 7 406 409 10 
6 9 16 20 24 19 461 21 28 
25 23 422 465 32 67 27 469 429 
26 36 35 434 401 40 39 79 437 
477 438 43 48 45 42 47 52 49 
51 50 46 55 56 95 453 450 454 
493 59 60 97 99 457 458 63 64 
68 462 501 103 505 71 72 107 509 
466 470 75 76 513 115 473 474 44 
80 478 83 88 85 87 91 92 86 
489 490 486 129 90 96 494 100 139 
537 104 143 108 502 545 112 147 506 
549 111 151 116 510 81 481 84 119 
120 118 123 125 128 522 127 132 529 
526 130 135 133 131 136 175 573 530 
134 140 144 148 542 183 585 581 152 
187 546 155 156 554 154 159 121 124 
160 157 557 558 158 163 165 168 162 
562 167 171 172 166 169 173 176 170 
174 213 179 180 578 219 577 178 217 
621 184 188 582 223 191 192 190 195 
193 196 594 194 197 164 161 199 200 
598 637 198 205 203 208 602 243 605 
202 207 212 606 206 249 215 211 216 
255 614 214 220 618 259 657 218 257 
224 228 227 231 232 229 226 633 235 
236 275 233 239 237 204 240 277 601 
238 241 248 641 642 245 242 247 252 
287 289 246 251 256 291 693 254 250 
260 297 264 258 263 268 265 262 267 
271 272 270 311 269 266 276 315 273 
274 244 279 280 319 278 281 283 288 
282 725 285 321 292 729 327 331 686 
295 690 296 293 294 299 300 304 298 
301 303 308 302 305 307 309 312 306 
713 316 313 710 310 284 320 359 357 
318 323 328 363 765 365 722 332 371 
726 335 336 334 375 773 339 340 344 
338 337 343 348 742 342 345 347 352 
346 349 746 355 353 351 356 395 354 
754 757 324 360 3 368 762 364 367 
372 766 366 15 376 774 413 374 379 
380 384 777 378 377 383 388 785 381 
385 782 382 387 391 392 386 786 790 
31 396 794 793 433 397 399 400 798 
402 408 802 403 805 412 806 809 407 
411 414 410 416 455 451 415 418 417 
420 424 419 425 428 463 865 426 427 
432 826 467 430 431 471 436 404 440 
439 801 838 445 443 442 448 449 446 
447 849 452 846 487 456 854 459 857 
460 858 497 897 861 901 464 468 905 
503 862 472 507 866 909 475 476 874 
479 441 444 480 841 877 878 485 483 
482 488 885 882 889 492 527 886 491 
890 495 496 531 535 498 499 500 898 
941 504 508 902 543 511 512 547 906 
910 515 514 516 913 914 517 519 484 
518 520 881 917 525 523 925 528 563 
965 569 532 929 567 969 926 534 930 
533 536 571 538 539 540 541 544 548 
942 583 981 949 551 552 550 555 553 
556 954 521 559 524 560 599 957 921 
958 565 568 962 603 1005 566 572 607 
966 570 613 574 575 576 611 615 974 
977 580 579 619 978 617 1017 584 588 
586 589 587 591 592 590 593 595 596 
1033 597 561 1001 564 600 1037 608 1002 
643 1045 649 609 612 1010 647 1006 1049 
610 616 655 651 620 624 622 625 623 
628 630 627 629 626 631 632 634 635 
1030 636 675 1073 639 677 604 638 640 
1038 645 648 644 689 646 652 687 653 
654 650 691 656 1054 661 658 659 660 
664 665 662 663 668 669 667 671 666 
670 672 674 673 676 1074 678 679 680 
1077 683 685 682 688 684 723 721 1121 
692 727 695 694 696 1094 735 697 698 
699 700 705 701 702 1105 704 703 708 
706 1109 709 707 712 714 711 715 716 
1113 717 718 681 719 720 728 724 731 
730 732 1126 733 734 736 775 737 1137 
741 739 738 740 743 745 1145 744 748 
751 749 750 747 752 753 755 756 1153 
761 797 759 758 760 799 763 768 1165 
1162 769 767 772 1166 1170 770 1169 771 
776 1174 778 781 421 779 780 1181 817 
1178 423 783 784 788 1182 787 1189 789 
792 795 791 435 796 1190 764 800 808 
803 1202 1205 812 807 811 1206 1210 1209 
814 810 816 1253 853 815 1213 818 820 
859 824 821 819 822 828 823 825 1265 
869 832 827 1269 867 829 830 834 871 
836 875 873 833 1230 1234 804 840 845 
842 843 848 1245 1242 847 851 850 852 
887 1249 1246 855 856 1254 1250 860 1258 
1257 899 1297 863 864 868 903 1305 1301 
872 911 870 876 1241 879 844 880 1278 
883 888 1285 1282 891 892 927 1290 1289 
894 1293 895 893 896 1294 1333 933 900 
945 904 908 1302 943 1341 1345 907 912 
1306 915 916 955 1314 884 918 919 920 
1281 1318 922 923 928 1325 963 1322 1365 
931 932 1326 1330 934 935 936 1334 975 
1373 937 938 939 1337 940 979 1338 944 
948 985 951 947 946 952 987 950 993 
953 956 961 924 959 960 997 1357 1358 
1361 968 1362 1009 970 967 971 972 1007 
1366 1409 1011 973 976 1015 980 984 1025 
983 982 988 986 989 990 992 1429 991 
1390 994 995 996 1393 998 999 964 1000 
1039 1003 1008 1402 1043 1405 1441 1012 1406 
1013 1014 1053 1016 1055 1051 1021 1018 1057 
1019 1020 1024 1065 1022 1023 1028 1029 1026 
1027 1032 1034 1031 1035 1430 1036 1041 1004 
1040 1042 1445 1048 1442 1044 1081 1046 1089 
1047 1052 1087 1449 1050 1093 1056 1091 1061 
1097 1058 1060 1059 1099 1064 1062 1063 1068 
1069 1066 1067 1071 1072 1075 1070 1076 1473 
1470 1078 1079 1080 1478 1085 1082 1083 1088 
1084 1125 1123 1521 1086 1092 1127 1090 1095 
1133 1096 1494 1098 1101 1100 1498 1501 1104 
1139 1102 1103 1108 1106 1107 1509 1112 1110 
1510 1115 1111 1114 1116 1155 1514 1117 1119 
1118 1120 1159 1481 1518 1517 1122 1124 1128 
1161 1163 1129 1131 1132 1130 1530 1135 1136 
1134 1533 1534 1138 1140 1144 1177 1141 1143 
1142 1148 1183 1146 1149 1147 1152 1589 1549 
1550 1151 1154 1150 1156 1593 1554 1157 1158 
1160 1199 1557 1558 1168 1164 1167 1171 1172 
1569 1566 1570 813 1173 1175 1176 1573 1574 
1577 1179 1180 1184 1185 1188 831 1187 1186 
1191 1192 1229 1586 1233 1195 1193 835 1590 
1194 1196 1198 1197 837 839 1200 1208 1204 
1212 1606 1610 1247 1207 1649 1609 1211 1214 
1216 1215 1614 1613 1218 1220 1618 1221 1222 
1261 1224 1228 1263 1665 1226 1267 1232 1630 
1273 1236 1275 1235 1238 1240 1279 1277 1243 
1248 1283 1642 1645 1251 1252 1650 1291 1646 
1653 1255 1256 1654 1693 1661 1657 1259 1260 
1658 1299 1697 1262 1264 1268 1303 1309 1266 
1272 1311 1271 1270 1313 1274 1276 1713 1315 
1244 1280 1317 1288 1323 1321 1685 1329 1287 
1689 1286 1292 1686 1295 1690 1296 1694 1298 
1300 1698 1339 1737 1304 1308 1702 1741 1343 
1310 1307 1312 1749 1710 1316 1753 1351 1319 
1284 1320 1721 1328 1363 1725 1722 1765 1327 
1332 1367 1371 1729 1331 1733 1730 1335 1336 
1375 1734 1773 1340 1344 1377 1342 1348 1383 
1742 1745 1347 1349 1346 1352 1746 1355 1353 
1350 1354 1356 1391 1324 1359 1360 1797 1399 
1397 1758 1761 1368 1403 1364 1401 1801 1369 
1372 1411 1370 1374 1376 1415 1378 1379 1417 
1380 1419 1381 1385 1421 1382 1384 1388 1821 
1389 1387 1386 1392 1786 1394 1395 1396 1435 
1398 1400 1439 1437 1798 1408 1404 1841 1407 
1410 1412 1451 1413 1414 1453 1416 1455 1457 
1461 1418 1420 1459 1422 1425 1424 1423 1428 
1463 1426 1427 1431 1432 1433 1434 1436 1438 
1440 1479 1477 1838 1877 1443 1448 1444 1885 
1489 1446 1447 1452 1487 1846 1450 1454 1493 
1491 1456 1495 1458 1460 1464 1465 1462 1505 
1468 1469 1466 1467 1472 1471 1475 1474 1476 
1913 1874 1480 1519 1917 1878 1485 1482 1483 
1488 1525 1523 1486 1492 1529 1527 1490 1496 
1531 1497 1499 1500 1537 1898 1504 1502 1503 
1508 1905 1506 1507 1511 1512 1547 1906 1513 
1553 1515 1516 1555 1910 1914 1484 1520 1918 
1921 1565 1522 1528 1524 1922 1561 1526 1532 
1567 1535 1536 1934 1581 1539 1941 1538 1540 
1544 1937 1938 1541 1545 1542 1543 1548 1583 
1546 1946 1552 1587 1949 1551 1556 1595 1591 
1953 1993 1954 1597 1559 1560 1599 1201 1203 
1562 1563 1568 1564 1962 1571 1572 1970 1575 
1576 1974 1973 1578 1217 1579 1219 1580 1617 
1977 1978 1585 1225 1582 1584 1223 1588 1985 
1989 1227 1986 1592 1629 1990 1231 1594 1596 
1994 1237 1598 1239 1600 1637 1602 1641 1608 
1604 1643 2001 1612 1647 1611 2010 1616 2014 
2013 1620 1619 2018 1624 1659 2057 1625 1622 
1621 2061 1628 1663 2022 1626 1632 2029 1669 
1627 1631 2030 1673 1634 1636 1675 1677 1638 
1640 1639 2038 2077 1648 1644 2085 1651 2049 
1652 2046 2050 1655 1656 1695 2093 2053 2054 
1660 1664 2097 2058 1662 1668 1703 1705 1709 
1670 1667 1666 1672 1707 1711 1671 1674 1676 
1715 2074 1678 1679 1680 1719 1717 1682 1683 
1688 1723 2082 2125 2089 1687 1692 2086 1691 
1696 2094 1735 2090 1699 1700 2098 2137 2141 
1704 1701 1708 1706 1712 1747 2106 1714 1716 
1755 2114 1681 1684 1718 1720 1759 1757 1728 
1763 2121 2161 2122 1769 1727 2129 1726 1732 
1767 2126 2169 1731 1736 1771 2133 2130 1738 
1739 1740 1779 2138 2177 1743 1744 1748 1783 
1752 1789 1787 1793 1750 2150 1754 1751 1756 
2154 1724 1760 1805 1762 1768 1803 1764 1766 
1809 1770 1772 1807 2170 1811 1775 1813 1776 
1774 1815 2213 1777 1817 1780 1778 1819 1782 
1785 1825 1781 1784 1788 1823 2182 1790 1791 
1792 1831 1794 1795 1796 2233 1799 2201 1800 
1839 1837 2237 1802 1808 1843 1804 2245 1810 
1806 1849 1812 1851 1847 1814 1816 1855 2214 
1853 1818 1857 1820 1859 2261 1822 1861 1824 
1828 1863 1826 1830 1827 1829 1832 1833 1835 
1834 1836 1875 2234 1840 2277 1879 2238 1842 
1845 1848 1883 2281 1850 1852 1889 2289 1854 
1856 1895 1893 1891 1858 1897 1860 1899 2297 
1862 1865 1864 1868 1869 1866 1870 1871 1867 
1872 1873 1876 1915 1844 1880 1919 1881 1882 
1888 1923 1925 2325 1929 1887 1886 1892 1927 
2329 1894 1890 1931 1896 1933 1935 1900 1901 
1904 1902 1945 1903 2305 1908 1943 2302 2345 
1907 1909 1947 1912 2306 2309 1911 1916 2353 
1955 2310 2314 1884 1920 1959 2318 2317 1961 
1928 1963 1924 1965 2365 1926 1932 1969 1967 
1930 1936 1971 1939 1940 1944 2341 2338 1942 
1948 1981 1983 2342 2385 1950 2349 1952 2346 
1951 2350 1956 1995 2354 1958 1997 1957 1960 
1999 1605 1603 1968 1964 2005 1607 1966 1972 
1615 1975 1976 2374 2017 1979 1980 2021 2377 
1982 1623 2025 1984 1988 2382 1987 1991 1992 
2386 2390 2389 1633 1635 1996 2393 2394 1601 
1998 2000 2397 2002 2008 2402 2401 2045 2043 
2006 2012 2047 2410 2016 2055 2015 2414 2413 
2020 2418 2059 2457 2019 2024 2028 2425 2465 
2026 2032 2027 2031 2033 2034 2036 2035 2433 
2434 2004 2040 2039 2041 2438 2042 2048 2044 
2441 2445 2485 2051 2052 2087 2446 2449 2489 
2091 2056 2454 2493 2453 2450 2060 2064 2065 
2063 2062 2068 2462 2103 2069 2109 2067 2066 
2072 2107 2470 2073 2070 2071 2075 2076 2111 
2079 2078 2080 2478 2477 2083 2088 2123 2525 
2482 2481 2521 2092 2486 2529 2095 2490 2096 
2101 2099 2100 2104 2105 2102 2145 2108 2143 
2545 2110 2509 2506 2112 2510 2151 2115 2113 
2116 2514 2081 2118 2117 2084 2119 2120 2517 
2128 2163 2124 2522 2127 2132 2167 2526 2134 
2131 2135 2173 2136 2175 2139 2140 2538 2179 
2185 2144 2142 2148 2181 2183 2149 2146 2189 
2147 2187 2152 2153 2155 2156 2193 2157 2159 
2158 2160 2199 2597 2197 2165 2162 2205 2168 
2601 2565 2166 2172 2207 2171 2174 2176 2573 
2178 2180 2217 2219 2617 2184 2188 2223 2221 
2225 2186 2190 2191 2192 2629 2227 2590 2231 
2194 2195 2196 2594 2235 2164 2198 2200 2637 
2598 2202 2203 2208 2602 2209 2206 2212 2210 
2211 2215 2216 2255 2257 2218 2220 2618 2259 
2224 2657 2222 2265 2228 2229 2226 2230 2232 
2626 2271 2236 2630 2673 2239 2204 2240 2638 
2242 2243 2641 2248 2244 2283 2246 2247 2249 
2251 2252 2250 2254 2293 2253 2256 2295 2654 
2258 2260 2299 2264 2301 2262 2263 2268 2303 
2270 2269 2266 2267 2272 2311 2273 2274 2275 
2276 2713 2241 2278 2279 2280 2678 2285 2282 
2288 2682 2286 2287 2292 2291 2290 2333 2294 
2296 2335 2690 2298 2337 2300 2339 2304 2308 
2343 2705 2709 2307 2312 2706 2749 2347 2351 
2313 2315 2316 2355 2753 2714 2717 2284 2681 
2319 2320 2359 2322 2323 2328 2326 2327 2332 
2331 2369 2334 2373 2730 2330 2336 2371 2375 
2340 2344 2381 2781 2348 2745 2742 2785 2352 
2387 2746 2750 2356 2754 2793 2358 2321 2357 
2324 2360 2757 2362 2003 2363 2368 2009 2366 
2007 2367 2372 2370 2011 2376 2773 2379 2378 
2380 2778 2417 2421 2023 2383 2384 2388 2782 
2429 2392 2789 2786 2391 2395 2396 2794 2037 
2361 2398 2399 2364 2400 2797 2761 2798 2408 
2802 2404 2405 2805 2801 2406 2412 2806 2451 
2416 2455 2814 2853 2810 2420 2424 2818 2422 
2428 2825 2423 2426 2432 2427 2826 2829 2430 
2431 2436 2435 2830 2834 2437 2440 2439 2479 
2837 2877 2443 2442 2448 2444 2845 2881 2842 
2885 2447 2452 2487 2849 2846 2889 2491 2456 
2850 2458 2461 2501 2460 2459 2857 2858 2464 
2861 2505 2463 2862 2468 2503 2905 2469 2466 
2467 2472 2507 2511 2869 2866 2473 2474 2475 
2471 2476 2874 2873 2480 2878 2483 2488 2523 
2484 2921 2882 2925 2492 2527 2886 2494 2495 
2496 2535 2497 2537 2498 2499 2500 2504 2539 
2937 2541 2941 2502 2902 2508 2543 2549 2909 
2512 2547 2906 2949 2553 2513 2515 2516 2555 
2551 2518 2519 2520 2918 2917 2528 2524 2922 
2563 2531 2532 2530 2571 2533 2536 2534 2540 
2544 2577 2585 2542 2942 2548 2583 2589 2546 
2587 2552 2591 2989 2946 2593 2550 2554 2556 
2595 2557 2558 2559 2560 2958 2599 2605 2961 
2562 2568 2567 2569 2566 2570 2572 2969 2966 
2613 2575 2574 2576 2615 3013 2581 2579 2578 
2580 2584 2619 3021 2582 2623 2588 2586 2592 
2627 2633 2596 2994 2631 2635 3033 2561 2564 
2600 2639 2998 2603 2608 2643 3002 3045 2606 
2607 2611 2609 2612 2647 3006 2610 3010 2614 
2616 3014 3053 2651 2655 2620 2624 2625 2622 
2621 2628 2663 3022 2669 2632 2667 2634 2636 
3034 2677 3037 2604 2640 2645 2642 2648 3042 
2649 2646 2652 3089 3046 2687 3049 2650 2653 
3050 2656 2691 2658 2697 2659 2660 2661 2701 
2664 2665 2662 2668 2666 2670 2672 2707 2674 
2671 2675 2676 3074 2644 2679 2680 3078 2685 
2721 2683 2688 3082 2684 2723 2686 2689 2692 
3086 2694 2693 2695 2696 2735 2699 2698 2700 
2737 2739 2703 3105 3101 2704 2741 2702 2708 
2743 2710 3109 2712 3149 3110 2711 2715 2716 
2718 2719 2720 2722 2765 2725 2728 2763 2726 
2729 2727 2732 2731 2767 2733 2734 2736 2771 
2775 3134 3173 2777 2738 2740 2779 3177 2744 
2748 2783 3142 3141 3181 2747 2752 3146 3150 
3189 2751 2755 2756 3153 2795 3154 3193 2758 
2724 2759 2760 3157 2762 2403 2768 3162 2764 
2769 2766 2407 2809 2409 2772 3166 2411 2415 
2774 2770 2776 2817 2419 2780 3178 3185 2784 
2788 3182 2787 3186 2792 3190 2791 2790 2796 
3194 2799 2800 3161 3198 2808 3205 2804 2843 
3241 3245 2812 3206 2847 3249 2851 2816 3210 
2820 2819 3217 2821 3261 2822 2824 2828 2823 
3225 2832 3229 2827 2831 3226 3230 2833 2836 
2875 3273 3233 2838 2840 2879 3238 3277 2848 
2841 2844 2883 3242 3285 3281 2852 2887 3246 
2854 2856 2855 2901 2860 2859 3258 2864 2899 
3301 2865 2863 2868 2903 3262 2867 3269 2871 
3266 2872 3309 2870 2876 2913 2915 2911 3274 
3270 3313 2880 2919 3278 3317 2888 2884 2923 
3282 3321 2891 2892 2890 2893 2894 2895 2896 
2898 2897 3297 2900 2904 2939 3298 3302 2908 
2943 3305 2907 2912 2947 3306 3310 3349 2914 
2910 2916 3314 2955 3353 2957 2920 3318 2959 
3357 2928 2924 2929 2927 2926 2930 2932 2967 
2931 2933 2934 2936 2935 2975 2973 3334 2977 
2938 2940 2944 2981 2945 3345 2948 3342 2983 
3385 2950 2952 3346 3389 2953 2993 2951 2954 
2956 2995 2991 3350 3393 2960 2999 3358 3397 
2965 2963 2962 2968 3003 3362 2972 3366 2971 
2970 2974 2976 3015 3413 2979 2978 2980 3019 
3378 2982 2985 2984 2988 3425 3382 3029 2987 
2986 2992 3027 3429 2990 2996 3031 3035 3390 
3394 3433 2964 2997 3000 3039 3005 3008 3402 
3445 3009 3409 3007 3012 3047 3410 3011 3406 
3016 3414 3051 3018 3017 3020 3059 3065 3025 
3061 3024 3023 3028 3465 3063 3026 3426 3032 
3067 3469 3071 3030 3036 3430 3001 3038 3004 
3040 3079 3085 3043 3048 3083 3052 3087 3054 
3093 3055 3056 3057 3058 3097 3060 3457 3099 
3062 3064 3068 3103 3505 3066 3069 3072 3107 
3111 3073 3113 3075 3070 3076 3115 3513 3077 
3041 3117 3044 3080 3478 3081 3088 3084 3123 
3129 3092 3486 3091 3529 3090 3133 3094 3095 
3096 3131 3135 3098 3137 3100 3541 3139 3497 
3537 3102 3104 3108 3106 3147 3112 3114 3116 
3155 3514 3121 3118 3119 3120 3517 3518 3125 
3165 3122 3128 3522 3127 3126 3132 3526 3167 
3530 3130 3136 3534 3573 3175 3138 3140 3179 
3145 3143 3545 3144 3148 3542 3183 3152 3151 
3550 3553 3156 3159 3158 3124 3160 3558 3557 
3199 3597 3561 2803 3163 3168 3562 3169 2807 
3209 3172 3170 3174 2811 2815 3171 3570 2813 
3176 3574 3213 3221 3180 3184 3581 3582 3188 
3187 3589 3586 3192 3191 2835 3195 3196 3593 
3590 3594 3164 3197 2839 3200 3237 3598 3202 
3208 3602 3204 3641 3645 3243 3601 3212 3247 
3606 3214 3216 3614 3255 3218 3220 3224 3259 
3661 3617 3222 3223 3228 3263 3625 3622 3232 
3626 3231 3227 3234 3236 3235 3275 3630 3673 
3240 3239 3638 3677 3637 3248 3283 3244 3642 
3681 3250 3251 3252 3650 3254 3253 3256 3653 
3654 3257 3260 3264 3658 3299 3697 3657 3265 
3662 3268 3705 3303 3665 3669 3267 3272 3271 
3311 3276 3315 3713 3670 3279 3280 3319 3678 
3717 3288 3284 3329 3289 3286 3287 3292 3291 
3290 3295 3293 3294 3296 3693 3694 3733 3341 
3300 3304 3701 3337 3339 3698 3308 3343 3702 
3745 3307 3312 3749 3347 3709 3706 3351 3316 
3355 3714 3710 3753 3320 3359 3718 3757 3325 
3323 3322 3328 3765 3326 3327 3332 3331 3330 
3730 3373 3333 3335 3336 3371 3375 3338 3340 
3737 3344 3379 3738 3348 3383 3785 3781 3742 
3352 3387 3746 3789 3354 3356 3391 3395 3750 
3754 3793 3324 3360 3365 3363 3368 3805 3369 
3367 3372 3766 3374 3370 3376 3415 3774 3813 
3377 3380 3421 3419 3381 3384 3388 3423 3782 
3825 3386 3392 3786 3427 3829 3790 3396 3431 
3364 3361 3398 3401 3399 3400 3403 3405 3408 
3845 3407 3412 3806 3447 3810 3453 3411 3451 
3416 3455 3417 3418 3420 3424 3459 3861 3461 
3422 3428 3865 3463 3822 3432 3826 3467 3434 
3435 3436 3475 3441 3438 3439 3404 3437 3440 
3442 3485 3443 3448 3841 3444 3446 3449 3452 
3489 3487 3454 3450 3456 3495 3491 3458 3460 
3462 3464 3468 3503 3509 3471 3470 3466 3472 
3511 3870 3474 3473 3476 3515 3477 3479 3480 
3525 3481 3482 3521 3483 3488 3523 3484 3492 
3531 3493 3494 3490 3496 3533 3933 3499 3498 
3500 3898 3539 3937 3501 3502 3504 3508 3506 
3510 3549 3507 3512 3551 3516 3914 3519 3520 
3559 3925 3528 3965 3524 3569 3527 3532 3926 
3929 3567 3535 3536 3571 3934 3575 3973 3538 
3540 3577 3579 3585 3543 3544 3548 3583 3985 
3546 3547 3552 3949 3587 3946 3555 3554 3556 
3954 3953 3921 3560 3958 3599 3997 3201 3203 
3565 3563 3568 3564 3605 3566 3609 3207 3572 
3970 3211 3613 3215 3576 3578 3219 3580 3978 
3584 3588 3591 3592 3989 3986 3990 3595 3596 
3633 3994 3600 3998 41 2 3608 3603 3604 
3643 3610 3612 3611 13 14 3616 18 3621 
3618 3620 3624 61 22 3628 3663 3623 30 
3632 29 3627 34 33 3631 3634 3636 3675 
38 77 3640 3679 3639 3648 3644 3649 3647 
3646 3652 3651 53 54 3655 3656 57 58 
3659 3660 3664 101 65 62 3668 105 69 
66 70 109 3667 3666 3672 3707 73 113 
74 3671 3674 3676 3715 78 117 3680 3719 
82 3685 3682 3683 3688 3687 89 3689 3686 
3692 3690 93 94 3691 3695 3696 98 3699 
3700 3704 102 3703 3708 3741 3743 106 149 
3712 110 114 153 3711 3716 3751 3755 3684 
3720 122 3725 3723 3722 3728 3726 3729 126 
3727 3732 3731 3771 3734 3735 3736 3775 137 
3739 138 3740 3779 177 3777 145 185 141 
181 3744 142 3748 3783 146 189 3747 3752 
3787 150 3756 3791 3758 3759 3721 3724 3760 
201 3763 3762 3768 3764 3769 3767 3770 3772 
3807 3809 3773 3776 3778 3817 3780 3819 3821 
182 3784 3788 221 225 3823 186 3792 3827 
3794 3795 3796 3797 3761 3799 3798 3800 3802 
3803 3808 3843 209 3812 210 3814 3815 3811 
3816 3855 253 3818 3857 3820 3859 3824 222 
3828 261 3863 3830 3831 3832 230 234 3833 
3834 3873 3835 3836 3801 3837 3838 3839 3804 
3840 3842 3848 3844 3883 3881 3889 3849 3846 
3847 3852 3887 3854 3853 3850 3851 3893 3856 
3895 3891 3897 3858 3860 3899 3901 3864 3862 
3868 3869 3867 3871 3866 3872 3907 3874 3875 
3876 3877 3878 3917 3879 3880 3885 3882 3888 
325 3923 329 3886 286 3892 3927 3931 290 
3890 3894 3896 3935 333 3900 3904 3902 3905 
3945 3903 3908 3906 3909 3912 3910 3911 314 
3913 3915 3916 3919 3884 3918 317 3920 3959 
322 3922 3928 3924 3963 326 369 3969 3932 
3930 3967 330 373 3936 3971 3938 341 3939 
3940 3944 3981 3942 3941 3943 3948 3983 3951 
3947 3952 350 3950 3955 3956 3993 3957 358 
3960 3999 1 3962 5 362 3968 3966 3607 
3972 3975 370 3615 3976 3974 3619 17 3977 
3979 3980 3984 3982 3988 389 390 3987 3629 
3992 394 3635 393 3991 3995 3996 398 37 
361 3964 3961 4000 
type 1 4000 int
1 1 1 1 1 1 1 1 1 
1 1 1 1 1 1 1 1 1 
1 1 1 1 1 1 1 1 1 
1 1 1 1 1 1 1 1 1 
1 1 1 1 1 1 1 1 1 
1 1 1 1 1 1 1 1 1 
1 1 1 1 1 1 1 1 1 
1 1 1 1 1 1 1 1 1 
1 1 1 1 1 1 1 1 1 
1 1 1 1 1 1 1 1 1 
1 1 1 1 1 1 1 1 1 
1 1 1 1 1 1 1 1 1 
1 1 1 1 1 1 1 1 1 
1 1 1 1 1 1 1 1 1 
1 1 1 1 1 1 1 1 1 
1 1 1 1 1 1 1 1 1 
1 1 1 1 1 1 1 1 1 
1 1 1 1 1 1 1 1 1 
1 1 1 1 1 1 1 1 1 
1 1 1 1 1 1 1 1 1 
1 1 1 1 1 1 1 1 1 
1 1 1 1 1 1 1 1 1 
1 1 1 1 1 1 1 1 1 
1 1 1 1 1 1 1 1 1 
1 1 1 1 1 1 1 1 1 
1 1 1 1 1 1 1 1 1 
1 1 1 1 1 1 1 1 1 
1 1 1 1 1 1 1 1 1 
1 1 1 1 1 1 1 1 1 
1 1 1 1 1 1 1 1 1 
1 1 1 1 1 1 1 1 1 