# vtk DataFile Version 4.0
Generated by LAMMPS
ASCII
DATASET POLYDATA
POINTS 4000 float
6.70176 -0.962879 1.50299 4.71062 -2.81478 1.48454 4.90452 -0.655053 -0.602439 
6.46468 -2.91096 -0.712793 10.4666 -1.65219 1.67391 8.46968 -3.33894 1.39158 
11.1559 0.383051 -0.544849 8.84887 0.594428 1.40337 8.79222 -1.31238 -0.462024 
12.7507 -0.152732 1.69822 14.4084 -2.47175 1.45327 14.5065 -0.194138 41.0154 
16.437 -0.731205 1.62703 18.1604 -3.19909 1.43038 20.2078 -1.48096 1.78334 
24.0633 -2.23932 1.52689 22.3445 0.0616598 1.4789 20.3808 0.532138 3.69785 
27.9942 -2.89156 1.40806 26.2594 -0.51685 1.52376 26.1169 -2.70298 3.55243 
30.2656 -1.32188 1.5266 32.1889 -1.64818 3.52453 32.4503 0.238188 1.49574 
32.0667 -1.62024 -0.457454 31.8783 -3.73583 1.67571 36.154 -0.314083 1.43592 
34.0339 -2.22031 1.58755 34.1957 0.0433759 3.57327 5.16409 1.51822 1.39256 
7.35543 3.01241 1.51424 7.063 0.878933 -0.647536 7.30934 5.29907 3.7625 
9.38737 4.98934 1.53988 11.0654 2.39895 1.49574 9.0857 2.92679 3.57797 
9.2395 2.77168 41.0346 14.8493 1.7178 1.49215 13.3432 4.0702 1.51535 
18.7373 0.738261 1.6417 17.0441 3.47838 1.57393 18.9996 3.121 3.60201 
19.1451 2.67453 41.1805 16.7287 1.4662 41.1513 17.5898 5.31422 41.0429 
20.9298 2.6216 1.7991 23.1245 4.2061 1.49889 22.7521 2.12511 3.68541 
21.2864 4.56118 3.59371 24.7117 1.85922 1.57241 27.003 3.56807 1.65072 
28.6015 1.16477 1.59132 25.0383 3.87235 3.56039 24.9815 3.85518 41.1149 
30.4732 0.432852 3.59216 30.8211 2.85169 1.6115 28.9057 3.29615 3.5631 
32.5691 2.39556 3.59853 33.0052 4.48981 1.46702 32.7093 2.29913 -0.671667 
28.871 3.10971 -0.419252 30.8493 4.84586 -0.283587 30.473 0.794104 -0.526809 
36.4857 3.78868 1.74604 34.4577 2.02389 1.54028 36.2051 1.78499 3.55258 
5.63205 5.43981 1.54688 3.99413 8.00855 1.42037 7.58341 7.25166 1.28719 
36.7823 5.76834 -0.599295 6.15243 9.66439 1.47149 7.56903 5.15197 41.1258 
5.59412 7.57063 -0.705024 11.6863 6.51615 1.34986 9.90828 8.94159 1.37134 
9.58499 6.98394 -0.584349 11.838 8.6311 -0.674766 7.71268 9.21571 -0.646043 
15.3138 5.7924 1.43997 13.8551 8.22287 1.41199 15.7597 7.72743 41.0086 
13.4746 6.22338 -0.747404 19.2477 4.77262 1.54618 17.6893 7.23787 1.41511 
19.8995 8.82307 1.46371 17.4275 5.37302 3.65305 19.5328 6.94796 3.72592 
19.5094 6.88912 -0.565251 21.3736 6.68845 1.60899 23.437 8.35731 1.64428 
21.8352 8.5424 -0.612094 23.3455 6.22972 41.3037 25.2106 6.06328 1.65938 
27.0803 5.73572 3.55875 27.3168 7.66832 1.66301 31.2475 6.93964 1.53399 
29.0891 5.41492 1.78576 29.3133 7.36951 3.76035 29.4803 9.25871 1.51992 
34.8789 6.3427 1.52383 33.1233 8.77164 1.60781 35.3615 8.04871 3.55216 
35.1936 8.35461 40.974 33.1513 6.80111 -0.730568 4.42498 12.1627 1.43265 
4.04698 10.0661 3.71916 4.02153 10.1924 41.0006 6.50362 13.8931 1.46087 
4.5339 14.2765 41.0793 8.2166 11.4819 1.24073 10.5466 13.0943 1.4948 
10.2875 11.0154 41.1472 8.49924 13.2596 -0.721633 12.1874 10.5062 1.45993 
14.6007 12.0529 1.31881 16.0744 9.72278 1.47516 12.4302 12.6972 41.2004 
14.0755 10.2763 -0.685442 18.2699 11.3403 1.5476 20.0552 10.9661 3.72782 
18.3703 13.5318 3.7335 20.27 13.0576 1.52952 17.9911 9.2858 -0.728225 
20.114 11.0165 -0.684035 21.8807 10.691 1.50567 23.9799 12.4467 1.52803 
25.6407 9.983 1.45217 27.8171 11.7575 1.55898 28.009 13.8178 -0.546428 
31.5807 10.9152 1.49943 29.9507 13.4306 1.69522 29.6831 11.3699 3.66966 
35.2996 10.504 1.47228 33.6126 12.848 1.58598 33.5276 10.5478 3.68636 
35.5188 12.4993 -0.82314 4.80833 16.2778 1.42844 7.30568 17.8794 1.36978 
5.27308 18.0615 3.56975 6.85116 15.7224 41.1749 8.83021 15.3726 1.61775 
11.0129 16.9944 1.5177 9.16469 17.2495 40.9553 10.732 14.9169 -0.70586 
12.7883 14.564 1.43697 14.9479 16.244 1.42802 12.9972 16.3905 41.2121 
16.63 13.7953 1.49152 18.3733 15.7162 1.55303 16.9559 18.0133 1.40282 
16.678 15.9928 41.1045 22.4835 14.6903 1.68735 20.5761 17.5045 1.54587 
20.4038 15.2245 3.42621 24.441 14.413 -0.557599 24.5859 16.5405 1.47098 
26.1904 14.137 1.61033 26.584 16.1431 3.32174 28.3811 15.8322 1.44566 
26.3892 16.1658 -0.611019 26.663 18.1103 1.3983 31.8343 15.232 1.47001 
30.3613 17.6598 1.4898 32.3732 17.3851 41.0787 30.1008 15.4737 -0.548594 
28.6667 17.987 41.0747 35.7961 14.5817 1.4656 34.0214 16.9108 1.45929 
35.9232 16.4719 3.5824 35.8754 16.5714 -0.543103 5.51548 20.0237 1.53085 
5.58173 22.3261 3.389 7.47804 21.9627 1.43052 3.6065 22.668 1.43915 
5.21732 18.107 -0.566364 9.46334 19.5236 1.26598 11.5863 21.1276 1.36823 
11.3112 18.9335 40.8116 13.1208 18.6792 1.37433 15.3804 20.1968 1.42865 
15.214 18.2661 3.40181 18.9799 19.6616 1.48037 19.4625 21.7039 3.63174 
17.5258 22.2046 1.55924 17.1654 19.9663 3.6272 22.9427 18.8663 1.44761 
21.3017 19.253 3.58057 21.1523 21.2459 1.62663 23.2288 21.1362 3.48443 
24.9817 20.6638 1.43422 27.0995 22.5047 1.55612 24.7398 18.4805 3.61592 
26.7185 20.534 3.50053 24.7511 18.6998 41.0132 28.6506 20.3146 1.57559 
30.6299 19.7205 -0.654669 30.8011 21.9684 1.36398 32.5542 19.3741 1.55594 
28.9539 22.1156 -0.63169 36.1838 18.4121 1.57126 34.5584 21.24 1.45116 
36.4588 20.6892 3.44474 32.5869 21.5204 -0.598562 36.5585 20.6437 41.2742 
34.4277 19.1204 -0.571572 5.82629 24.2143 1.28654 3.87436 24.6308 3.52819 
4.43316 26.6712 1.42858 6.10006 26.446 -0.838601 7.99008 26.0425 1.39448 
9.8923 23.4343 1.64768 12.0253 25.0775 1.81352 10.0628 25.709 41.413 
11.8416 23.2208 41.2298 13.7225 22.7454 1.53806 15.7635 24.3943 1.44964 
13.953 24.9197 3.5873 16.0195 26.3775 3.54761 18.0642 26.1964 1.45234 
19.6944 23.6985 1.59951 19.8499 25.8665 41.1306 17.8347 24.0804 -0.559342 
23.2705 23.2221 1.5393 21.5038 25.6548 1.4628 21.365 23.7491 3.61466 
23.6253 25.1959 41.055 25.1808 22.9355 3.68608 25.3201 25.0075 1.60763 
27.4263 26.5945 1.58848 27.239 24.3986 3.69924 27.2408 24.6902 41.2178 
25.3001 22.776 -0.632323 25.6719 26.9805 -0.386865 29.1732 24.1278 1.69744 
31.2412 25.8383 1.55159 31.0354 23.8888 3.62074 29.2872 26.0802 3.77701 
32.8672 23.4506 1.44651 35.1098 25.0255 1.50345 33.1841 25.5406 -0.732007 
6.35955 28.3572 1.29559 4.80902 30.764 1.51235 4.64044 28.6187 3.56024 
6.80192 30.2248 -0.81313 8.51282 27.9419 3.42726 10.1992 27.6792 1.43804 
8.54968 29.9194 1.21304 10.5175 29.5808 3.34769 8.31324 27.8483 -0.730276 
10.4981 29.6029 -0.797036 12.3638 27.219 -0.670591 14.0844 26.908 1.48008 
12.1557 27.2225 3.61171 12.3566 29.183 1.33801 14.3338 28.8164 3.63047 
14.4986 30.9458 1.47622 12.5617 31.3527 3.48259 16.1079 28.6066 1.60012 
18.1799 30.4077 1.56462 19.8709 28.0476 1.49798 17.9313 28.2631 3.55312 
18.2021 28.2774 41.0413 19.982 30.2387 40.865 23.5091 27.602 1.54246 
21.937 29.9512 1.50207 23.9166 29.3764 41.1037 21.685 27.8298 40.926 
25.7035 28.9908 1.76768 27.5552 28.864 -0.261574 27.9568 30.9607 1.69094 
27.7367 28.6324 3.56917 25.9172 31.047 3.65981 26.055 31.0548 41.2882 
29.6612 28.2314 1.45364 31.7 30.2249 1.50624 29.8014 30.3719 -0.534543 
31.3971 27.9786 41.2058 33.3565 27.5095 1.59558 35.6425 29.1647 1.53839 
6.9968 32.3194 1.35859 5.39055 34.9652 1.45842 5.14501 32.8065 3.46317 
7.28129 34.6013 41.2016 10.8497 31.645 1.4904 9.14769 34.1421 1.55675 
11.0957 33.7733 3.78109 10.8106 33.9573 40.9983 8.94723 31.9034 40.9201 
12.6277 33.5776 1.35308 14.8462 35.187 1.4101 12.7821 31.3604 40.9832 
12.9937 35.665 -0.792914 16.5245 32.8977 1.49033 18.651 34.7051 1.49725 
18.6466 32.4484 3.6283 18.4825 32.6656 41.1275 20.3187 32.0758 1.67906 
22.4913 33.8214 1.48111 20.5876 34.4694 3.6228 24.1007 31.4469 1.54549 
26.369 33.2394 1.59861 24.4698 33.4846 -0.55525 24.7063 35.6873 1.50681 
24.3821 33.5285 3.72445 28.1962 32.6457 -0.504807 26.4101 35.3018 41.118 
28.3504 34.7147 1.44041 30.1624 32.4077 1.51437 31.9625 31.8888 -0.641463 
32.3285 33.8957 1.35711 31.9813 32.0107 3.71444 30.4779 34.3942 41.1644 
34.0011 31.5608 1.5714 36.1571 33.0565 1.46925 34.4331 35.6658 1.51496 
36.4167 35.2623 41.1916 7.57309 36.5535 1.57346 6.10592 38.9307 1.43752 
4.0249 39.3566 3.58971 7.74112 38.774 3.64543 7.71383 38.6315 -0.684279 
5.43787 36.8385 -0.571965 37.1013 39.1367 41.1057 11.2164 35.9319 1.52513 
9.60284 38.2847 1.4205 9.43239 36.1747 3.71089 11.4207 38.0251 -0.616146 
11.6878 40.2145 1.57857 13.3781 37.7185 1.59827 15.2448 39.4124 1.71287 
15.117 37.3663 41.0461 17.0394 37.163 1.3658 19.2473 38.846 1.49309 
18.8433 36.8192 41.0287 20.8102 36.3682 1.47864 22.9854 38.136 1.58897 
21.1512 38.1854 41.1291 26.759 37.2265 1.7244 25.2328 39.603 1.39491 
24.8786 37.5988 3.6232 30.7171 36.4794 1.46725 28.9745 38.7418 1.58573 
28.7832 36.7264 41.0181 28.8054 36.7628 3.58355 30.9509 38.4728 3.70705 
30.779 38.4373 41.1171 3.6266 37.4348 1.54304 32.7222 38.0182 1.50909 
34.771 37.6967 3.51072 35.1339 39.7651 1.37155 34.7775 37.5591 41.1701 
6.36567 43.2454 1.48667 4.3243 41.3647 1.51691 6.08758 40.8806 41.1823 
4.45269 43.3641 41.0733 8.33247 40.6067 1.62286 9.854 40.3903 3.71075 
10.2967 42.555 1.46578 8.39307 42.8914 3.5874 10.2923 -3.78024 -0.562095 
8.01129 42.6992 41.0133 9.83813 40.3995 -0.639618 13.5153 41.9766 1.67729 
12.1939 44.3713 1.56926 15.5558 41.4601 3.59375 14.0488 43.8745 -0.645259 
15.569 41.458 41.0846 15.9752 43.4316 1.39497 17.4991 41.0891 1.40245 
19.7834 42.7164 1.44155 17.7247 43.1524 41.0268 21.8582 44.4098 1.37318 
21.486 40.4915 1.44146 23.6237 41.9632 1.48066 24.0791 44.0079 3.70258 
25.8509 43.6169 1.30649 27.4535 41.3565 1.4595 27.8184 43.3566 3.60822 
25.6482 41.7587 3.53932 29.7652 42.9165 1.51676 31.2312 40.4554 1.43148 
29.2707 40.8611 3.43054 32.9866 39.9929 41.0146 33.6906 44.155 3.67179 
35.6046 43.7719 1.61345 33.4993 41.9785 1.44356 4.96156 -0.697839 3.66893 
6.45913 -3.11478 3.55081 6.77078 -0.932625 5.77527 4.66751 -2.72234 5.75617 
8.57623 -1.30953 3.74489 10.6701 0.600743 3.68367 10.4697 -1.51812 5.68699 
8.39235 -3.59985 5.47773 8.97149 0.843259 5.83951 12.3222 -1.96894 3.744 
14.5608 -0.462784 3.78455 12.5458 -0.108929 5.74895 14.3275 -2.31161 5.77788 
18.4029 -1.11193 3.91533 20.042 -3.55029 3.71745 16.3187 -2.76022 3.57897 
16.514 -0.80486 5.78985 18.2477 -3.17175 5.82686 22.4249 -1.83373 3.68575 
[...]
POINT_DATA 4000
FIELD FieldData 6
id 1 4000 int
7 3 2 5 11 372 10 12 9 
16 15 14 20 19 24 28 63 461 
32 67 426 36 434 75 34 35 4 
40 438 8 47 6 446 52 51 449 
49 55 56 59 60 458 58 57 97 
64 103 462 501 68 72 71 505 66 
473 76 470 477 80 74 70 113 73 
43 79 402 48 83 87 42 88 46 
85 91 92 89 90 86 95 96 94 
93 99 100 139 497 498 98 104 108 
102 105 107 509 112 115 111 513 116 
44 119 481 81 117 123 482 82 128 
122 127 132 129 126 131 136 135 130 
133 140 538 577 144 137 141 143 148 
147 151 150 120 155 514 84 159 518 
121 163 168 562 165 167 172 166 169 
171 176 170 175 179 180 177 183 184 
581 185 187 152 550 156 189 191 160 
195 197 154 193 124 199 561 161 203 
602 208 204 162 207 212 209 211 215 
613 219 621 220 617 188 582 223 586 
192 231 589 590 186 196 194 235 200 
233 164 239 601 237 201 198 243 641 
244 242 248 247 251 249 210 216 255 
653 657 259 224 261 257 227 228 625 
226 629 232 271 630 230 229 269 236 
275 634 673 240 279 277 283 284 681 
285 685 252 287 689 246 289 250 256 
650 291 654 295 693 260 264 263 661 
258 262 267 268 266 265 272 270 311 
670 709 309 276 315 313 274 280 319 
288 323 721 325 292 327 690 329 286 
296 300 290 333 299 304 701 301 303 
308 702 307 312 306 347 706 310 349 
351 316 314 355 714 353 320 359 360 
321 328 363 761 726 365 322 361 331 
332 729 330 336 335 340 337 339 344 
341 343 348 342 352 387 746 356 391 
350 750 793 393 324 395 797 399 358 
368 364 362 1 367 730 371 769 370 
366 369 375 376 777 374 377 380 379 
384 378 23 383 388 425 27 392 429 
786 31 396 790 397 437 39 400 405 
766 407 768 409 410 411 772 412 413 
414 416 415 418 421 417 420 419 422 
424 463 822 428 465 469 432 467 869 
826 430 471 830 475 436 401 403 440 
801 838 406 445 408 447 450 451 452 
850 453 454 455 456 853 854 457 459 
460 857 858 499 464 503 901 466 468 
507 472 474 476 874 441 479 443 404 
485 442 448 487 483 488 486 489 490 
492 491 890 889 493 494 495 496 894 
897 500 898 539 502 541 941 504 543 
506 508 512 517 511 480 515 478 444 
519 881 525 882 523 528 526 529 527 
532 926 531 533 530 535 536 934 537 
534 937 540 579 938 575 545 542 544 
548 549 510 553 516 547 557 520 555 
521 484 559 522 565 922 563 568 569 
566 567 572 573 570 571 576 973 578 
574 580 615 585 546 583 584 978 593 
552 551 950 556 554 597 993 560 595 
954 997 558 524 599 961 605 603 1002 
608 604 609 606 607 612 610 614 611 
616 1013 619 620 1014 1021 588 587 591 
592 631 1029 594 633 596 635 1033 600 
637 598 1001 564 639 1037 642 645 643 
1042 644 1045 649 646 647 648 1049 652 
1046 651 655 656 618 622 623 624 626 
627 628 1025 669 632 1030 671 636 675 
638 677 678 640 679 1038 1077 682 683 
684 687 688 1085 1086 1089 691 660 1054 
658 662 659 664 663 1062 666 665 667 
668 1066 707 672 1070 711 674 713 676 
715 717 718 680 719 725 723 724 1122 
686 692 727 1125 1090 694 697 695 700 
1097 1094 698 699 704 1098 705 745 703 
708 749 712 1106 747 1149 1110 710 753 
751 716 755 757 758 720 759 1157 1158 
760 722 728 763 1161 733 696 731 1133 
1129 736 734 737 735 740 1134 738 741 
739 744 742 785 743 748 783 789 752 
787 1189 754 756 791 1193 799 1154 795 
800 762 765 767 764 1165 770 773 732 
771 774 776 775 780 778 781 779 784 
782 423 788 825 427 792 829 1186 433 
431 796 1190 833 794 798 439 435 805 
1166 803 807 810 809 811 1209 1172 812 
814 813 816 815 817 821 818 820 819 
1217 1221 865 861 824 828 863 1222 832 
867 1226 873 871 1234 875 836 840 804 
1277 806 845 846 1206 808 847 849 851 
852 1249 1250 855 856 1253 859 860 899 
862 864 903 905 866 909 868 907 872 
870 877 876 1273 1274 880 841 802 843 
879 885 848 883 886 887 891 892 893 
1293 895 896 1294 1297 900 939 1337 902 
904 943 906 945 908 912 1306 917 913 
911 915 916 842 878 844 919 925 888 
923 928 929 927 932 933 930 931 935 
1330 936 977 1334 940 979 1338 942 981 
944 948 910 949 947 951 957 914 920 
955 1357 918 921 884 959 965 962 963 
968 1362 969 966 967 972 970 971 976 
1373 974 1017 975 980 1374 1015 946 985 
1381 983 984 1382 1385 987 953 952 956 
1389 1393 960 1354 995 958 924 1361 999 
1358 1005 1003 1405 1008 1006 1009 1007 1012 
1406 1409 1010 1011 1016 1410 1019 1020 1417 
1418 986 982 988 1023 1421 1425 989 990 
991 992 1031 1386 994 996 1035 1000 998 
1437 1401 964 1039 1398 1041 1043 1044 1441 
1442 1445 1004 1047 1048 1052 1053 1050 1057 
1055 1051 1454 1022 1018 1024 1059 1026 1027 
1028 1426 1069 1429 1032 1071 1430 1469 1034 
1073 1036 1075 1473 1434 1040 1079 1477 1478 
1081 1082 1083 1084 1087 1088 1485 1056 1091 
1095 1061 1058 1060 1064 1063 1458 1065 1067 
1068 1466 1109 1072 1111 1107 1113 1074 1076 
1115 1513 1078 1117 1118 1080 1119 1518 1121 
1123 1124 1521 1525 1092 1127 1093 1096 1100 
1494 1490 1101 1099 1104 1102 1105 1145 1103 
1108 1502 1545 1506 1112 1147 1153 1114 1151 
1116 1553 1155 1514 1120 1159 1160 1557 1126 
1198 1128 1163 1565 1131 1132 1136 1530 1526 
1137 1135 1140 1141 1138 1139 1144 1142 1185 
1143 1148 1542 1146 1152 1187 1546 1150 1156 
1191 1593 1197 1199 1554 1195 1200 1597 1162 
1168 1164 1201 1562 1167 1170 1130 1169 1171 
1173 1174 1177 1176 1175 1180 1178 1181 1179 
1184 1182 1183 823 1188 1225 827 1192 1586 
1229 831 1196 1590 834 1194 837 839 835 
1594 1598 1202 1205 1208 1204 1602 1210 1610 
1207 1211 1609 1212 1213 1214 1216 1215 1614 
1613 1218 1220 1219 1617 1224 1261 1265 1228 
1263 1269 1267 1232 1630 1626 1230 1236 1235 
1275 1238 1240 1279 1638 1245 1246 1247 1243 
1251 1252 1650 1254 1653 1255 1256 1654 1257 
1258 1259 1260 1658 1299 1262 1301 1264 1303 
1266 1305 1271 1268 1272 1669 1666 1270 1276 
1673 1674 1315 1241 1278 1244 1280 1285 1242 
1248 1283 1287 1286 1289 1290 1291 1292 1295 
1296 1693 1298 1697 1300 1339 1302 1341 1304 
1308 1309 1307 1312 1313 1310 1314 1311 1316 
1753 1281 1317 1319 1320 1325 1282 1288 1323 
1725 1328 1326 1329 1327 1332 1333 1331 1336 
1335 1377 1734 1737 1340 1344 1741 1345 1342 
1343 1348 1745 1742 1349 1346 1347 1352 1353 
1351 1355 1356 1750 1754 1318 1321 1284 1359 
1322 1365 1363 1368 1722 1762 1369 1366 1367 
1372 1370 1371 1376 1770 1375 1378 1379 1778 
1380 1781 1384 1383 1785 1782 1388 1350 1387 
1391 1392 1397 1360 1395 1793 1324 1399 1761 
1402 1403 1805 1802 1408 1407 1412 1413 1411 
1415 1813 1814 1419 1420 1818 1423 1424 1821 
1822 1390 1427 1431 1825 1829 1394 1433 1396 
1794 1435 1833 1400 1364 1801 1798 1439 1837 
1443 1444 1842 1841 1845 1404 1449 1446 1451 
1447 1448 1414 1453 1416 1455 1853 1457 1461 
1459 1460 1422 1428 1463 1861 1865 1432 1471 
1436 1475 1873 1438 1440 1479 1481 1482 1483 
1484 1881 1489 1450 1452 1487 1493 1456 1491 
1850 1893 1496 1497 1462 1495 1464 1499 1894 
1897 1465 1467 1468 1470 1509 1869 1472 1870 
1511 1909 1474 1476 1515 1517 1480 1519 1878 
1918 1917 1488 1523 1882 1486 1529 1492 1527 
1929 1533 1890 1531 1535 1933 1498 1501 1500 
1504 1898 1505 1503 1508 1902 1549 1507 1512 
1547 1949 1510 1516 1555 1914 1551 1953 1558 
1520 1559 1522 1561 1528 1563 1922 1961 1532 
1567 1571 1926 1534 1537 1536 1540 1538 1541 
1539 1544 1585 1945 1543 1548 1942 1589 1552 
1587 1550 1950 1556 1591 1560 1524 1595 1599 
1203 1564 1962 1601 1568 1570 1566 1569 1572 
1605 1966 1970 1573 1574 1577 1575 1576 1977 
1580 1581 1578 1579 1584 1981 1582 1985 1583 
1223 1588 1625 1982 1227 1592 1233 1231 1596 
1237 1239 1600 1637 1641 1604 1643 2041 2002 
1606 1608 1612 2045 1616 1615 1618 1621 1620 
1619 1624 1661 1622 1665 1628 1663 2026 1632 
1631 2030 1634 1633 1636 1635 2034 1675 1677 
1640 1679 2077 2037 1642 1645 2042 1648 1644 
2081 1649 1647 1651 1652 2050 2046 1655 1656 
2053 1657 1660 1659 2057 1701 1662 2061 1664 
1668 2065 2062 1667 1671 1672 2066 2070 1670 
1676 2073 2074 1717 1678 1715 1680 1719 2078 
2117 1646 1685 1683 1684 1687 1689 1686 1690 
2089 1692 1691 1694 1695 1696 1698 1699 1700 
1704 1705 1702 1703 1708 2105 2102 1709 1706 
1707 1712 1713 1710 2113 1711 1716 2153 1681 
1714 1718 1720 1755 2114 2157 1682 1688 1723 
2125 1728 1729 1726 1727 1732 2129 2126 1730 
1733 1731 2133 1736 2130 1735 1738 1739 2098 
1744 2141 1743 1748 2142 1749 1746 1747 1752 
2149 1751 1756 1791 2150 2193 1721 1757 1759 
1760 2158 1765 2165 1763 1768 1769 1766 1767 
2169 1772 2166 1773 1771 1775 1777 1740 1779 
2177 1780 2181 1783 1784 2185 2182 1788 1789 
1786 1787 1792 1797 1790 1795 1796 2194 1758 
1724 1799 2161 2197 2162 2205 1803 1808 1804 
1806 1809 1807 1811 2170 2209 1774 1776 1815 
2213 2174 1817 1819 1820 2217 1823 1824 2221 
2222 1827 1828 1832 2225 2226 1831 1835 2230 
1800 2201 1764 2198 2237 1839 1843 1844 2241 
1810 1849 1847 1812 1851 2210 1816 1855 1857 
1858 1859 1860 2257 2258 1863 1864 2261 2262 
1826 1830 1867 1871 2265 2269 2266 1834 1836 
2234 1875 1838 1877 1840 2238 2277 1879 1885 
1848 1883 2285 2242 1846 1889 1852 1887 2246 
2289 1854 1856 1891 1896 1899 1895 1900 2294 
1901 1866 1862 1868 1903 2298 1872 2270 2309 
1911 1874 1913 1876 2274 1915 2313 1880 1919 
2317 2281 1925 1888 1923 2282 1886 1892 1927 
2329 2286 1930 1931 1936 1937 1935 1939 1905 
1907 1904 1908 2341 1906 1947 1912 2306 2349 
1910 2310 1951 1916 1955 2314 2353 1957 1921 
1884 1920 2321 2318 1965 1928 1963 2365 2322 
1924 1969 1932 1967 1934 1973 1975 1971 2373 
2370 1941 1938 1944 1940 2377 1943 2345 1948 
2385 1946 1989 1952 1987 1993 1991 1956 1954 
1958 1959 1960 1999 1603 1964 2362 2001 1972 
1968 2005 1607 1974 1611 1976 1980 2374 1978 
1979 1984 2378 1623 1983 1988 1629 1986 1627 
1992 1994 1990 1995 1996 1997 1998 1639 2000 
2043 2004 2441 2008 2047 2049 2006 2445 2014 
2010 2016 2051 2449 2017 2018 2021 2020 2019 
2024 2414 2421 2022 2028 2027 2425 2029 2032 
2031 2033 2035 2036 2075 2434 2038 2040 2079 
2477 2438 2044 2083 2481 2442 2048 2052 2087 
2446 2485 2489 2054 2055 2056 2450 2059 2058 
2060 2063 2068 2422 2465 2462 2069 2067 2072 
2071 2469 2076 2470 2473 2474 2115 2119 2080 
2517 2478 2085 2082 2084 2159 2088 2521 2091 
2092 2090 2490 2093 2094 2095 2096 2064 2097 
2101 2099 2104 2103 2108 2505 2109 2106 2107 
2112 2509 2111 2110 2116 2553 2118 2120 2155 
2557 2086 2123 2121 2124 2127 2132 2526 2131 
2135 2100 2537 2137 2139 2144 2138 2538 2145 
2143 2148 2545 2542 2146 2147 2152 2546 2151 
2156 2191 2593 2550 2154 2160 2195 2554 2128 
2122 2168 2163 2565 2167 2171 2569 2530 2134 
2173 2136 2175 2573 2140 2178 2179 2184 2183 
2188 2585 2582 2189 2187 2186 2229 2192 2586 
2190 2196 2231 2629 2633 2199 2200 2598 2594 
2202 2203 2605 2207 2172 2211 2570 2609 2176 
2215 2613 2574 2180 2218 2219 2220 2617 2223 
2224 2622 2227 2228 2267 2625 2232 2233 2236 
2630 2669 2235 2164 2239 2637 2634 2601 2204 
2208 2245 2243 2602 2206 2249 2212 2247 2606 
2251 2214 2253 2254 2216 2255 2614 2653 2654 
2259 2260 2658 2657 2263 2264 2662 2272 2268 
2666 2665 2273 2271 2275 2673 2240 2279 2638 
2677 2283 2248 2685 2642 2252 2287 2250 2293 
2291 2256 2296 2650 2295 2297 2300 2299 2694 
2697 2301 2303 2305 2304 2701 2702 2311 2307 
2705 2706 2709 2276 2315 2713 2674 2278 2244 
2280 2681 2641 2678 2325 2288 2323 2682 2292 
2327 2729 2686 2290 2333 2331 2336 2733 2690 
2335 2337 2334 2340 2737 2339 2302 2343 2738 
2308 2312 2347 2351 2316 2320 2284 2319 2718 
2721 2328 2363 2361 2324 2722 2326 2332 2369 
2367 2726 2330 2371 2376 2338 2375 2379 2777 
2342 2344 2348 2742 2346 2389 2352 2387 2750 
2350 2354 2355 2356 2753 2754 2357 2359 2358 
2399 2360 2758 2003 2364 2368 2762 2372 2366 
2007 2009 2766 2012 2013 2011 2015 2381 2380 
2384 2417 2778 2382 2025 2383 2023 2388 2786 
2386 2390 2392 2391 2393 2394 2395 2396 2794 
2397 2398 2039 2400 2437 2402 2404 2443 2841 
2408 2447 2448 2406 2846 2845 2806 2451 2452 
2453 2849 2853 2418 2420 2419 3182 2821 2814 
2423 2428 2427 2426 2429 2430 2432 2431 2826 
2830 2433 2436 2435 2834 2440 2479 2877 2444 
2483 2881 2842 2487 2488 2893 2454 2455 2456 
2850 2424 2461 2457 2459 2861 2818 2463 2468 
2862 2865 2466 2467 2472 2471 2869 2475 2476 
2873 2874 2519 2515 2480 2917 2482 2484 2523 
2882 2918 2921 2525 2486 2492 2491 2493 2497 
2460 2495 2854 2464 2458 2501 2499 2504 2502 
2503 2508 2905 2506 2507 2512 2513 2510 2511 
2516 2913 2910 2518 2559 2514 2555 2520 2914 
2957 2524 2522 2558 2599 2958 2529 2527 2531 
2496 2533 2494 2535 2500 2498 2541 2539 2544 
2941 2938 2543 2548 2942 2549 2547 2552 2949 
2946 2551 2556 2591 2950 2993 2597 2595 2560 
2954 2997 2528 2561 2563 2567 2922 2965 2532 
2571 2969 2534 2536 2575 2540 2577 2578 2579 
2581 2584 2583 2982 2588 2589 2587 2592 2986 
2590 2596 2631 3029 2990 2635 2600 2994 2998 
2562 2566 2568 2607 2962 2572 2611 2970 3009 
2576 2615 2580 2618 2619 2620 3017 2621 2623 
2624 3022 2627 2626 2628 2667 3025 3026 2632 
2671 3069 3030 2636 2564 2639 3034 2603 2645 
2608 2643 3045 3002 2610 2649 2612 2647 2651 
3006 3010 2616 2655 3014 3053 3054 2659 2660 
3057 3058 2661 2663 2664 3062 3061 2668 2707 
3066 3065 2670 2675 2672 3073 2604 2640 3001 
3038 2648 2683 3042 2646 2689 2652 2687 3089 
2656 2693 2691 2696 3093 2695 2700 2699 3094 
3097 2698 2703 2704 3098 3101 3102 2711 2708 
3105 3109 3106 2676 2680 3074 3077 2679 2644 
3041 3078 3081 2725 2688 2723 3082 2692 2727 
2731 2736 3090 3133 2734 2735 2740 3134 3137 
2739 2741 2744 3138 3141 2743 2745 2749 2710 
2712 2747 3110 3113 2714 2716 2717 2715 2720 
3114 2719 2684 3121 3118 2728 2763 2761 2765 
3122 3161 3165 2769 2732 2767 3126 3169 2730 
2773 2771 2776 2770 3173 3170 2774 2775 2780 
3177 2781 2779 2748 3146 2746 2752 2751 3149 
3150 2755 2756 3153 3154 3157 2724 2759 2757 
2760 2799 2797 2401 2403 2764 3162 2772 2405 
2768 2407 3166 2805 2409 2410 2413 2412 2411 
2416 2809 2810 2813 2415 2784 2785 2783 2782 
2788 2787 3185 2789 2790 2792 2791 3189 2793 
2795 2796 3193 2798 2439 2800 3197 3198 2802 
2804 2843 2808 2847 3245 2851 2816 2812 3210 
3214 2820 2819 3221 3217 2825 2828 2823 2827 
2822 3222 2829 2832 2831 3230 3229 2833 2836 
2835 3234 2838 2840 2879 3238 2844 2883 3281 
3285 2885 2848 2852 2887 3246 3250 2857 2856 
2855 3254 3253 2824 2859 3257 2863 2868 3265 
2866 2871 2867 2872 2875 2870 2876 2915 3270 
3274 3313 2878 2880 2919 3278 3317 2884 2959 
2888 3318 2889 2886 2891 2892 2890 3286 3289 
2897 2860 2895 2864 2858 2901 2899 2904 3301 
2902 2903 2908 3302 3305 2909 2906 2907 2912 
3309 3306 2953 2911 2916 3353 3310 2955 2920 
3357 2923 2925 2924 3325 3321 2926 2929 2927 
2931 2894 2896 2933 2900 2935 2937 2898 2939 
2944 3341 2945 2943 2948 3345 2947 2952 3349 
2951 2956 2991 3350 2995 2960 3354 3358 2928 
2963 2967 3322 2930 2932 2971 3369 2934 2973 
2936 2975 2977 2978 2940 2979 3377 3378 2981 
2985 2983 2984 3382 3381 3385 2989 2988 2987 
2992 3389 3386 3033 2996 3031 3390 3394 2999 
3000 3397 2961 2966 3005 2968 3007 3366 3405 
2972 3011 3370 2974 3013 2976 3015 3374 3413 
2980 3018 3019 3020 3417 3418 3021 3023 3024 
3421 3422 3027 3028 3425 3426 3032 3036 3433 
3430 3035 2964 3037 3039 3437 3003 3008 3043 
3445 3406 3402 3049 3012 3047 3051 3449 3016 
3055 3414 3453 3454 3059 3060 3457 3458 3063 
3064 3461 3462 3067 3068 3072 3469 3466 3071 
3075 3070 3434 3473 3004 3040 3438 3085 3048 
3083 3442 3046 3052 3087 3056 3050 3091 3096 
3450 3493 3095 3099 3100 3497 3103 3104 3501 
3505 3107 3111 3108 3470 3509 3076 3080 3079 
3044 3441 3478 3125 3088 3123 3525 3482 3086 
3129 3092 3127 3529 3131 3136 3130 3135 3140 
3534 3537 3139 3143 3502 3541 3112 3145 3147 
3116 3117 3115 3120 3517 3119 3084 3159 3481 
3518 3521 3128 3163 3522 3132 3167 3569 3171 
3176 3530 3570 3174 3175 3179 3538 3142 3144 
3181 3148 3545 3542 3152 3151 3550 3155 3156 
3554 3124 3160 3158 3199 3557 3558 2801 2803 
3164 3201 3172 3168 2807 3205 2811 2815 3574 
3213 2817 3178 3180 3184 3581 3578 3183 3186 
3188 3187 3582 3190 3192 3191 3590 3589 3194 
3195 3196 3594 2837 2839 3200 3597 3237 3598 
3241 3202 3204 3243 3249 3208 3212 3206 3609 
3216 3215 3218 3220 3219 3224 3618 3617 3621 
3225 3228 3227 3626 3226 3232 3231 3630 3629 
3233 3236 3275 3634 3633 3277 3240 3279 3242 
3248 3244 3645 3642 3646 3247 3251 3252 3650 
3255 3256 3654 3653 3261 3259 3260 3657 3262 
3263 3268 3661 3662 3665 3269 3266 3267 3272 
3271 3669 3666 3670 3273 3276 3673 3315 3280 
3319 3717 3283 3282 3284 3288 3686 3287 3292 
3291 3290 3689 3297 3293 3295 3296 3694 3693 
3264 3258 3299 3304 3697 3303 3308 3307 3312 
3709 3706 3311 3316 3351 3753 3314 3355 3320 
3714 3718 3323 3328 3682 3329 3326 3327 3332 
3333 3294 3331 3335 3300 3733 3737 3337 3298 
3339 3344 3738 3741 3342 3343 3348 3745 3346 
3347 3352 3749 3393 3356 3391 3359 3360 3365 
3363 3368 3362 3765 3762 3330 3367 3371 3766 
3334 3373 3336 3375 3773 3338 3340 3379 3380 
3778 3383 3384 3785 3781 3782 3388 3387 3392 
3789 3790 3395 3396 3429 3793 3324 3361 3399 
3761 3403 3407 3404 3805 3409 3372 3411 3770 
3376 3415 3774 3813 3419 3420 3818 3817 3423 
3424 3821 3822 3427 3428 3432 3829 3431 3435 
3400 3833 3364 3398 3401 3439 3801 3837 3408 
3443 3845 3410 3412 3447 3849 3810 3451 3416 
3455 3853 3854 3459 3460 3858 3463 3464 3861 
3865 3465 3467 3471 3826 3830 3436 3475 3440 
3477 3479 3877 3838 3485 3448 3483 3842 3446 
3489 3452 3487 3889 3456 3491 3495 3850 3893 
3494 3499 3500 3897 3498 3468 3503 3901 3862 
3472 3511 3507 3870 3909 3513 3474 3476 3515 
3444 3480 3878 3488 3523 3882 3486 3492 3527 
3496 3490 3533 3531 3536 3930 3539 3535 3898 
3504 3508 3902 3506 3549 3512 3547 3510 3514 
3551 3516 3520 3484 3519 3881 3918 3561 3528 
3563 3565 3922 3961 3526 3532 3567 3573 3571 
3575 3934 3973 3540 3577 3544 3938 3543 3548 
3585 3985 3546 3552 3587 3946 3989 3553 3555 
3556 3954 3559 3524 3560 3599 3958 3997 3562 
3203 3564 3601 3962 3572 3568 3566 3207 3209 
3211 3576 3580 3579 3584 3978 3981 3223 3583 
3586 3588 3625 3982 3591 3592 3235 3593 3595 
3596 3239 3600 3602 3641 3608 3604 3610 3606 
3611 3607 13 3613 3614 3616 3615 21 17 
18 3620 3619 22 61 3622 3624 3628 3663 
26 65 30 3632 3631 33 3636 3635 3675 
77 38 3638 3677 3640 3679 45 3643 3647 
3612 50 3649 3652 3651 54 53 3655 3656 
3658 3659 3660 3699 62 101 3664 3668 69 
3667 3672 3671 3674 3676 3713 78 3715 41 
3678 3644 3680 3648 3685 3683 3687 3692 3691 
3690 3695 3696 3701 3700 3704 3705 3702 3703 
3708 109 106 3707 3712 114 110 3710 3711 
3716 3751 3681 3719 3720 125 3725 3688 3723 
3728 3726 3729 3727 3732 134 3731 3730 3735 
3736 138 3698 3739 3744 142 145 3742 3743 
3748 149 146 3746 3747 3752 153 157 3750 
3754 3755 3756 118 3721 3757 3684 3759 3722 
3763 3768 3769 3767 3772 173 3734 3771 3775 
178 3777 3740 3779 3780 181 182 3783 3784 
3788 3786 3787 3791 3760 3795 3797 158 3758 
3724 3799 205 202 3802 3803 3808 3804 206 
3809 3807 3811 174 213 3776 3815 3814 217 
3819 218 3820 221 225 3823 3824 190 3825 
3792 3827 3831 3794 3796 3835 3800 3764 3798 
3839 245 241 3841 3843 3844 3806 3812 3847 
3851 214 253 3816 3855 254 3857 3859 3860 
222 3828 3863 3832 3871 3869 273 234 3834 
3836 3873 3875 238 278 3840 3879 281 3885 
3848 3883 3846 3852 3887 3856 293 3891 3896 
297 3895 3894 3899 3864 3867 3868 3866 3872 
3911 3907 3874 3913 3876 3915 318 317 3917 
3880 3919 282 3925 3888 3923 3929 3886 3892 
3927 294 3890 3933 3931 3935 298 3937 3900 
3904 305 345 302 3905 3903 3908 3945 3949 
3906 3912 3947 3910 3914 3953 3916 3951 3955 
357 3921 3884 3920 3928 3963 326 3965 3926 
3969 3932 3967 3971 334 3936 3940 338 3939 
3944 3941 385 3943 3942 3948 389 346 3952 
3987 354 3950 3956 3991 3957 3959 3924 3960 
3999 3603 3964 3605 3966 3968 3972 373 3970 
3975 3976 3974 3977 3980 381 3979 3984 382 
25 3983 3623 3988 29 386 3990 3986 3627 
3992 390 394 3993 3994 3995 3996 398 37 
3637 3998 3639 4000 
type 1 4000 int
1 1 1 1 1 1 1 1 1 
1 1 1 1 1 1 1 1 1 
1 1 1 1 1 1 1 1 1 
1 1 1 1 1 1 1 1 1 
1 1 1 1 1 1 1 1 1 
1 1 1 1 1 1 1 1 1 
1 1 1 1 1 1 1 1 1 
1 1 1 1 1 1 1 1 1 
1 1 1 1 1 1 1 1 1 
1 1 1 1 1 1 1 1 1 
1 1 1 1 1 1 1 1 1 
1 1 1 1 1 1 1 1 1 
1 1 1 1 1 1 1 1 1 
1 1 1 1 1 1 1 1 1 
1 1 1 1 1 1 1 1 1 
1 1 1 1 1 1 1 1 1 
1 1 1 1 1 1 1 1 1 
1 1 1 1 1 1 1 1 1 
1 1 1 1 1 1 1 1 1 
1 1 1 1 1 1 1 1 1 
1 1 1 1 1 1 1 1 1 
1 1 1 1 1 1 1 1 1 
1 1 1 1 1 1 1 1 1 
1 1 1 1 1 1 1 1 1 
1 1 1 1 1 1 1 1 1 
1 1 1 1 1 1 1 1 1 
1 1 1 1 1 1 1 1 1 
1 1 1 1 1 1 1 1 1 
1 1 1 1 1 1 1 1 1 
1 1 1 1 1 1 1 1 1 
1 1 1 1 1 1 1 1 1 