# vtk DataFile Version 4.0
Generated by LAMMPS
ASCII
DATASET POLYDATA
POINTS 4000 float
4.53624 -0.484398 3.74645 6.36091 -0.753987 1.75401 4.20234 -2.49649 1.66481 
6.1998 -2.93402 3.74006 10.3785 -1.50223 1.63776 8.39888 -1.16128 3.63625 
10.7359 0.424719 3.70017 8.03005 -3.15474 1.72035 10.1477 -3.50954 3.76509 
12.7175 0.138696 1.79093 14.3807 -2.178 1.88533 12.3155 -1.89383 3.67302 
14.5745 -0.205712 3.82899 12.1872 -1.85933 -0.316902 16.5293 -0.533501 1.85671 
18.2031 -2.96271 1.54934 18.4532 -0.961389 3.79077 20.0785 -3.28162 3.64256 
16.3665 -2.70048 3.72044 20.4351 -1.25405 1.69906 20.1343 -3.37057 40.7329 
24.2961 -2.18079 1.75905 22.3521 -1.85255 3.77939 24.792 -0.116901 3.79037 
22.8298 0.077958 1.88984 20.589 0.820718 -0.338546 20.7291 0.699354 3.80573 
28.1785 -2.81561 1.42523 26.5418 -0.483996 1.61479 28.543 -0.85149 3.69812 
26.3546 -2.49191 3.73607 28.4904 -0.687791 -0.363532 26.0306 -2.37377 40.663 
30.4065 -1.04991 1.60143 32.0917 -3.47059 1.70761 32.2448 -1.41554 3.71889 
30.1864 -3.0946 3.53978 30.1713 -3.05052 40.6679 36.5163 -0.0950715 1.77225 
34.1095 -1.79455 1.61267 36.1562 -2.13804 3.65751 34.5636 0.169014 3.82877 
4.73265 1.61144 1.5284 7.09294 3.21284 1.68072 6.86478 1.2771 3.6346 
5.04633 3.56918 3.63204 5.14364 3.71099 -0.162737 8.78377 0.692137 1.85949 
9.45001 4.89218 1.56878 11.237 2.32626 1.82215 9.09033 2.9145 3.75068 
11.4603 4.57377 3.6701 14.8702 1.67667 1.55608 13.3381 4.05039 1.55996 
13.1145 2.16235 3.74366 15.1402 3.95778 3.72847 15.0963 3.83079 40.8092 
18.7827 1.02363 1.65565 17.0652 3.47104 1.73966 19.145 3.18653 3.45966 
16.8113 1.67075 3.63779 19.0312 5.37327 1.63171 20.9984 3.08681 1.63645 
23.3166 4.42098 1.51259 23.0447 2.4569 3.89723 21.4276 4.66284 3.75627 
22.6875 2.3584 -0.382483 24.9293 1.86875 1.77203 27.2001 3.58301 1.59023 
28.7187 1.30869 1.69452 25.3101 3.9189 3.64529 26.8387 1.63569 3.82155 
32.7093 0.586123 1.55866 30.7326 0.920774 3.75914 30.972 2.84512 1.74022 
29.0563 3.23397 3.75145 32.9085 2.58607 3.71315 33.104 4.67746 1.82284 
31.1169 5.21243 3.78344 37.011 4.06225 1.62946 34.9231 2.17326 1.77093 
36.7636 1.8556 3.74682 35.1349 4.27229 3.6427 7.53944 5.19454 3.63548 
5.46281 5.76398 1.63213 3.67227 8.11312 1.74082 5.90203 7.50475 3.97655 
7.46343 5.22237 40.8701 7.73602 7.32067 1.68049 11.5904 6.59513 1.75611 
9.73162 8.97711 1.93814 9.69021 6.74449 3.92127 9.6384 6.95993 40.8206 
7.97926 9.16811 3.84856 11.7471 8.62111 3.82247 15.5046 5.84977 1.65999 
13.7502 8.28514 1.77017 13.648 6.17649 3.70038 15.7079 7.88089 3.74617 
17.5891 7.76002 1.85695 19.9226 9.17637 1.9542 17.3121 5.54473 3.70771 
19.5919 6.9907 3.78171 17.8014 9.53818 3.85365 21.4831 6.63859 1.65502 
23.8498 8.50009 1.819 23.6244 6.36907 3.79936 21.7964 8.79639 3.74793 
21.7423 8.87815 -0.136588 23.4783 6.62149 -0.231961 25.5551 5.93517 1.56957 
27.5228 5.79357 3.61213 27.4711 7.82908 1.53278 25.8275 8.12175 3.77947 
31.4458 7.11412 1.70716 29.2816 5.42638 1.60113 31.7217 9.28321 3.71154 
29.5014 7.53146 3.63644 29.7425 9.34708 1.56893 3.49194 6.04391 3.6786 
35.3278 6.41647 1.846 33.5732 9.00381 1.71473 33.455 6.76781 3.76591 
35.7524 8.69398 3.91467 5.93827 9.74459 1.68834 4.36629 12.0644 1.78981 
6.42344 13.6447 1.61321 4.20031 9.96515 3.83277 6.14306 11.6929 3.84347 
6.16378 11.6092 40.7498 8.08749 11.35 1.71976 10.4097 12.9523 1.96829 
8.21916 13.3323 3.7417 9.92292 10.9038 3.84074 12.0545 10.7511 1.88534 
9.90942 10.9592 -0.363278 8.43078 13.3045 -0.274919 14.147 12.3251 1.58183 
14.0653 10.2758 3.6637 12.1555 12.6317 40.7417 15.7941 10.0625 1.69059 
12.4227 12.5789 3.8936 13.9177 10.1069 40.8234 15.9734 11.7516 40.7466 
16.2182 11.8447 3.65594 18.2507 11.5481 1.75797 19.9947 11.3192 3.77591 
18.4434 13.6013 3.67256 20.396 13.2986 1.69923 17.9676 9.57731 -0.30862 
22.1516 10.8599 1.7647 23.9199 10.5193 3.78331 24.1742 12.626 1.71994 
22.4526 12.8181 3.69614 23.8814 10.7004 -0.331596 22.157 12.8717 40.8486 
26.015 10.1672 2.00681 28.1692 11.9276 1.61745 26.081 12.0887 3.79419 
27.9757 9.84426 3.95988 31.7761 11.1896 1.537 30.2222 13.5282 1.53535 
32.0587 13.1708 40.5776 30.0076 11.614 3.73302 32.3519 13.1883 3.72423 
36.0607 10.4922 1.65169 34.1578 12.7381 1.61814 34.0157 10.7532 3.66402 
36.1325 12.3784 3.52955 4.47317 14.0888 3.8495 4.73774 16.0412 1.60749 
6.92807 17.6095 1.70902 6.55869 15.6799 3.78519 8.54099 15.284 1.84705 
10.5557 16.9676 1.99354 10.5796 14.8888 3.82202 8.56342 17.4877 3.8376 
8.57581 17.3987 40.7999 12.3696 14.5998 1.87051 14.7004 16.2274 1.67065 
14.6522 14.2541 3.6858 12.6759 16.5559 3.68685 16.3903 13.9626 1.71248 
18.8144 15.5738 1.73825 18.9497 17.5348 3.89071 16.5725 16.037 3.60967 
22.3703 15.0548 1.65031 20.7909 17.3665 1.81193 24.4741 16.5987 1.58297 
20.6137 15.1312 3.88616 22.7476 16.9743 3.85896 24.5365 14.6021 3.71052 
28.3289 13.8169 3.72993 26.5243 14.0791 1.85137 26.646 16.1517 3.56424 
28.4478 15.8097 1.61079 29.039 17.8727 3.72201 28.7379 17.9023 -0.330873 
32.5679 15.0226 1.62591 30.9533 17.3575 1.55355 32.8787 17.0809 40.8385 
30.408 15.4035 3.60334 32.8811 16.9046 3.67723 30.4932 15.4176 40.7711 
36.5256 14.4801 1.69258 34.8227 16.6983 1.74096 36.6224 16.5029 3.78679 
34.5771 14.7663 3.81531 5.28245 20.0158 1.67402 7.11315 19.9755 3.97145 
5.498 22.1016 3.94075 7.21385 21.7188 1.74608 5.0358 18.0495 3.87463 
5.3944 22.1268 40.7043 7.10126 19.9124 40.8158 9.02558 19.3232 1.79373 
11.0782 21.0634 1.86854 11.0468 18.9878 3.82424 9.26084 21.4557 4.10493 
9.31742 21.4618 -0.17056 12.8763 18.7876 1.75689 15.2953 20.1479 1.72973 
14.8441 18.1698 3.86421 13.2002 20.7012 3.73661 14.7332 18.3257 -0.316166 
17.0019 17.82 1.6052 19.2627 19.6337 1.93511 19.3369 21.691 3.79993 
17.2313 22.1586 1.91284 17.1297 20.0229 3.77447 22.9084 18.8729 1.67048 
21.0454 19.2977 3.90177 21.3185 21.4804 1.65883 23.0362 20.8544 3.71804 
26.8092 18.1574 1.74973 25.1387 20.6829 1.66998 27.432 22.2688 1.72802 
24.8303 18.7129 3.64257 27.3958 20.1275 3.73181 24.8021 18.6242 40.8486 
29.1078 19.8243 1.65515 31.1453 19.5758 -0.212573 31.4172 21.5408 1.74505 
29.4649 21.7502 -0.252883 33.0495 19.1348 1.73741 31.0272 19.6505 3.62631 
29.3606 21.9565 3.63282 33.2481 21.3497 3.5862 37.1043 20.4526 -0.327492 
37.0186 18.391 1.75125 35.1457 18.7119 -0.374448 35.2543 20.8124 1.71964 
3.43125 20.404 3.64578 35.1536 18.8548 3.74977 33.4631 21.1461 -0.0449345 
5.5414 24.0823 1.70074 5.81197 26.3371 3.67648 7.74328 23.8473 -0.256615 
3.82816 24.4832 3.74086 3.8868 26.6923 1.75263 3.50032 24.7739 40.8456 
7.82127 25.9122 1.83702 7.5378 23.8498 3.88786 9.41512 23.5723 1.98955 
11.4541 23.041 3.90337 11.7613 25.0457 1.90626 9.73901 25.6244 3.95413 
9.7488 25.4294 -0.262311 11.513 22.9102 -0.13102 15.406 22.498 4.07929 
13.6154 22.5987 1.93395 15.688 24.4448 1.78128 13.6875 24.6826 3.99443 
17.817 25.9956 1.82287 19.6897 23.7455 1.64668 17.6972 24.0799 3.81495 
19.9185 25.6246 3.83751 23.528 22.9878 1.61215 21.7629 25.4674 1.52187 
21.4058 23.4067 3.65757 23.6859 24.8896 3.70162 23.5811 25.063 40.5403 
21.4185 23.4036 40.8697 25.4537 22.5061 3.82916 25.7559 24.5152 1.67258 
27.9565 24.0929 40.8796 27.8703 26.1512 1.48098 27.5069 24.203 3.8166 
25.9893 26.7544 3.68153 29.7159 23.8733 1.74396 31.6282 23.4145 40.8088 
31.8301 25.6072 1.82702 31.6885 23.6153 3.8828 29.9036 25.8418 3.57615 
29.9631 25.9065 -0.458569 3.42399 22.5187 1.68885 33.4545 23.4046 1.70514 
35.4895 24.9465 1.64352 35.6048 22.8787 3.81092 33.7962 25.2659 3.81016 
35.3633 22.9523 -0.333238 33.5942 25.1932 -0.266161 6.1268 28.2642 1.80028 
4.15698 30.6803 1.79661 4.09082 28.7082 3.92748 6.23249 30.2478 3.81535 
6.33588 30.3022 -0.253648 8.11173 28.0852 3.75491 10.1223 27.3853 2.02015 
8.34126 29.9428 1.77022 10.3462 29.5275 3.80036 12.0849 27.0913 3.96177 
7.91599 27.7726 -0.376406 13.8693 26.8001 1.79129 15.9235 26.5657 3.79996 
12.2342 29.2514 1.81564 16.1791 28.5824 1.80847 14.1423 28.8376 3.86944 
16.3688 30.4823 40.6462 18.3857 30.0889 1.76184 20.018 27.709 1.69647 
16.4828 30.634 3.68772 18.1227 28.1627 3.87079 20.1431 29.8118 3.80301 
20.1919 29.7905 40.7468 24.076 27.0554 1.65278 22.1748 29.3636 1.63701 
24.3415 29.1566 40.7641 24.1671 29.0493 3.82176 21.9098 27.5301 3.77747 
21.9628 27.4114 -0.349632 26.0039 26.7113 40.7955 26.1974 28.7136 1.75185 
28.1113 28.2801 40.749 26.4396 30.6279 -0.243237 28.4345 30.4434 1.51423 
28.2917 28.0282 3.52471 26.4756 30.6032 3.72954 30.0242 27.9325 1.54748 
32.2679 29.5337 1.70323 31.8928 27.6285 3.85678 30.4969 30.0153 3.82833 
32.1732 27.5878 40.6545 30.3974 30.1423 40.6089 33.956 27.2384 1.63833 
35.9276 29.0786 1.70863 35.9856 26.8608 3.70784 34.2294 29.5119 -0.320619 
34.1823 29.2559 3.84814 36.4905 31.1691 -0.29563 6.65352 32.2496 1.83372 
4.79645 34.7685 1.65017 4.64997 32.632 3.74591 6.79461 34.3675 3.7511 
4.64176 32.752 -0.186434 10.6052 31.7056 1.81669 8.80502 33.9611 1.81793 
8.52925 31.8323 3.7146 10.8039 33.7379 3.88124 14.2748 31.0019 1.70913 
12.8102 33.3416 1.7929 14.7864 32.9463 40.9085 14.9684 34.9298 1.61231 
13.1318 35.3769 3.61162 12.6504 31.2941 3.95748 14.6766 33.0031 3.7936 
16.6243 32.4358 1.57415 18.801 34.1989 1.77917 16.8604 34.479 3.68712 
18.7601 32.3071 3.89976 18.5414 32.1387 40.8081 22.4245 31.4971 3.63282 
24.2487 30.9703 1.72242 22.5154 31.4084 40.6487 20.4546 31.7091 1.59671 
22.7892 33.3377 1.50918 20.7352 33.8188 40.7815 20.9836 33.7973 3.62304 
23.0494 35.5882 40.6809 26.8181 32.7154 1.5213 24.7565 32.93 40.8269 
25.0324 35.0399 1.54415 28.4934 32.3335 3.68362 24.9311 32.9613 3.48705 
26.8711 34.6453 3.93083 26.884 34.7803 40.7078 28.5903 32.4441 40.723 
28.8579 34.5365 1.56594 30.4468 32.2062 1.73203 32.4063 31.9158 40.773 
30.7601 34.0123 3.78833 32.6243 33.7035 1.63995 32.7018 31.7842 3.75722 
30.5624 34.3065 40.6674 34.4897 31.4646 1.69416 36.5914 33.1822 1.89382 
34.7634 33.4759 3.76863 36.2764 31.1691 3.83428 36.9393 35.199 3.7682 
34.5538 33.5688 40.8222 6.98485 36.4919 1.60554 5.3541 38.7521 1.73692 
5.24034 36.6462 3.90636 3.52842 39.1455 3.83704 7.38999 38.3248 3.72726 
[...]
POINT_DATA 4000
FIELD FieldData 6
id 1 4000 int
405 7 3 766 11 409 410 372 770 
16 15 413 414 13 20 19 418 421 
417 24 21 28 422 465 63 61 461 
32 67 469 426 30 26 36 35 434 
430 33 4 40 401 438 8 47 406 
445 45 12 52 51 449 450 55 56 
453 454 54 59 60 458 457 99 64 
103 462 501 62 68 72 71 505 466 
75 473 76 470 477 80 474 43 79 
402 441 446 48 83 485 46 87 91 
92 489 89 486 490 95 96 493 494 
100 139 497 498 537 104 108 502 541 
102 105 107 509 112 506 115 111 517 
513 116 442 44 119 478 481 88 123 
128 482 525 125 127 132 526 529 131 
129 126 136 533 130 135 530 133 134 
534 140 538 577 144 137 143 545 148 
542 145 142 147 151 549 510 120 155 
157 514 557 84 159 518 521 522 163 
168 565 167 172 569 566 166 171 176 
573 570 175 179 578 574 183 184 187 
581 585 546 553 152 550 156 593 193 
160 195 197 554 597 154 124 199 561 
558 203 605 602 208 562 202 205 207 
212 609 606 206 211 215 613 610 174 
180 219 621 220 617 188 582 223 586 
191 192 231 589 590 186 196 194 235 
233 200 594 633 637 201 164 198 239 
601 598 237 243 642 245 641 244 241 
248 645 247 649 251 646 249 210 614 
216 255 653 259 224 618 622 227 228 
625 626 226 222 629 232 230 271 630 
669 236 234 275 634 673 273 204 240 
279 638 677 238 277 283 284 681 682 
285 685 252 287 689 650 246 256 657 
291 260 654 297 264 263 658 661 662 
262 267 268 266 666 665 265 269 272 
270 309 311 670 709 276 315 674 713 
274 313 280 319 678 317 717 318 288 
323 721 725 282 292 327 686 690 295 
296 294 300 694 693 697 299 304 698 
701 301 705 307 305 303 308 302 702 
345 312 306 347 710 706 749 349 310 
351 316 314 753 355 714 353 320 359 
757 718 758 357 328 363 722 761 726 
322 365 361 331 332 729 733 335 340 
734 737 334 339 344 738 741 745 343 
348 342 742 785 385 352 389 387 346 
746 789 356 391 350 750 793 393 354 
754 324 395 360 797 399 358 368 364 
762 765 367 336 730 371 769 773 369 
375 376 774 777 380 379 384 778 381 
781 23 383 388 382 782 425 27 392 
429 786 29 31 396 790 433 390 437 
794 39 400 798 397 398 407 768 805 
1166 411 810 809 772 1170 416 415 814 
813 420 419 817 821 818 424 463 822 
428 865 432 467 869 826 471 436 830 
873 403 440 801 838 806 408 447 845 
412 451 849 452 850 455 456 853 854 
459 460 857 858 499 464 503 861 901 
862 468 507 905 866 472 475 476 909 
877 870 443 404 479 841 802 846 448 
483 885 842 487 492 886 491 890 889 
495 496 894 893 897 500 898 539 941 
504 543 902 508 512 906 945 511 480 
917 913 874 515 444 519 878 881 488 
882 523 925 528 527 532 926 929 535 
531 536 933 930 937 540 579 934 938 
977 544 548 942 981 516 547 910 949 
520 555 957 914 484 918 559 921 922 
563 965 568 567 572 969 966 571 576 
973 970 575 580 974 1017 583 584 978 
946 985 552 551 953 950 556 993 560 
595 954 997 524 599 958 961 962 603 
1005 1002 608 607 612 1006 1009 611 1010 
616 1013 615 619 620 1014 1021 588 587 
986 982 591 989 592 631 990 596 635 
994 1033 600 1001 564 639 998 1037 643 
1041 1042 1045 604 644 647 648 1049 652 
1046 651 655 1053 1050 1057 623 624 1022 
1018 627 628 1025 1026 1029 632 1030 671 
636 675 1034 1073 640 679 1038 1077 683 
684 1081 1082 687 688 1085 1086 1089 691 
656 660 1054 659 664 1061 1058 663 1062 
667 1065 668 1066 707 1069 672 1109 1070 
711 676 715 1113 1074 680 719 1078 1117 
1118 723 724 1121 1122 692 727 1125 1090 
695 700 1097 1093 699 704 1098 1101 703 
708 1102 1105 712 1106 747 1149 1110 751 
716 1153 1114 755 759 720 1157 1158 728 
763 1161 1126 1198 696 731 1133 1129 1094 
735 1137 740 1134 739 744 1141 1138 1145 
743 748 1142 752 1146 787 1189 756 791 
1150 1193 1154 795 799 760 800 1197 767 
764 732 1162 1165 736 1130 1169 771 1173 
775 776 1174 1177 780 779 1178 784 1181 
1185 783 423 788 1182 825 427 792 829 
1186 431 796 1190 833 834 439 435 1194 
837 803 807 1202 1205 811 1210 1209 1172 
1570 816 815 1213 1214 820 819 1218 1217 
1221 824 828 863 1222 1261 1265 832 867 
1226 1269 871 836 1230 1234 875 840 804 
1238 1277 1206 808 847 1245 812 851 852 
1249 1250 855 856 1254 1253 859 860 1257 
1258 899 864 903 1262 1301 868 872 907 
1266 1305 876 1270 1273 1313 1274 843 879 
880 1241 1278 1246 848 883 1285 887 1242 
891 892 1289 1286 1290 1293 895 896 1294 
1297 900 939 1298 904 943 1302 1341 908 
912 1309 1306 911 915 1310 1314 844 919 
1281 1317 888 923 928 1325 1282 927 932 
1326 1329 935 931 1330 936 1333 940 979 
1337 1334 1338 1377 944 948 1345 1342 947 
951 1349 1346 916 920 955 1357 1353 884 
1318 959 1321 1322 963 1365 968 1362 1369 
967 972 1366 971 976 1370 1373 975 980 
1374 1378 1381 983 984 1382 1385 1350 987 
952 956 1389 1393 960 1354 995 1397 924 
1361 999 1358 1003 1405 1402 1008 1007 1012 
1406 1409 1011 1016 1410 1413 1015 1019 1020 
1417 1418 988 1023 1421 1425 991 992 1390 
1031 1386 996 1035 1394 1433 1000 1437 1401 
964 1039 1398 1043 1044 1441 1442 1445 1047 
1048 1449 1446 1052 1414 1055 1051 1453 1454 
1024 1059 1457 1461 1027 1028 1426 1422 1429 
1032 1071 1430 1036 1075 1473 1434 1004 1040 
1079 1438 1477 1083 1084 1481 1482 1087 1088 
1485 1489 1450 1091 1056 1095 1493 1060 1064 
1063 1458 1497 1462 1067 1465 1068 1466 1469 
1072 1470 1509 1111 1076 1115 1513 1474 1080 
1119 1517 1478 1518 1123 1124 1521 1525 1092 
1127 1486 1529 1096 1100 1533 1494 1490 1099 
1498 1501 1104 1107 1505 1103 1108 1502 1506 
1112 1147 1549 1510 1151 1116 1553 1155 1514 
1120 1159 1160 1557 1558 1128 1163 1565 1522 
1561 1131 1132 1136 1530 1526 1135 1534 1140 
1537 1139 1144 1538 1541 1545 1143 1148 1542 
1585 1152 1589 1187 1546 1550 1156 1191 1593 
1195 1199 1200 1554 1597 1168 1164 1201 1562 
1167 1171 1573 1566 1569 1176 1175 1574 1180 
1577 1179 1184 1581 1578 1183 823 1188 1225 
1582 827 1192 1586 1229 831 1196 1233 1590 
1237 839 835 1594 1598 1208 1204 1641 1602 
1610 1207 1211 1606 1216 1215 1614 1613 1220 
1219 1618 1617 1224 1228 1263 1661 1622 1665 
1267 1232 1630 1626 1236 1235 1634 1275 1633 
1240 1279 1677 1638 1247 1243 1642 1645 1646 
1212 1649 1251 1252 1650 1653 1255 1256 1654 
1259 1260 1658 1657 1264 1303 1701 1662 1271 
1268 1272 1669 1666 1276 1670 1673 1674 1315 
1244 1280 1717 1678 1248 1283 1685 1681 1287 
1291 1689 1292 1686 1690 1295 1296 1694 1693 
1299 1697 1300 1339 1698 1737 1304 1308 1705 
1702 1307 1312 1709 1706 1311 1316 1351 1713 
1710 1753 1319 1320 1714 1718 1288 1682 1323 
1725 1328 1729 1327 1332 1726 1331 1730 1336 
1733 1335 1734 1340 1344 1741 1738 1739 1343 
1348 1745 1742 1743 1347 1352 1749 1746 1355 
1356 1750 1754 1284 1721 1359 1757 1363 1368 
1762 1722 1765 1367 1769 1372 1766 1371 1376 
1773 1770 1375 1379 1778 1380 1777 1781 1384 
1383 1785 1782 1388 1789 1387 1391 1786 1360 
1395 1797 1793 1790 1324 1758 1399 1761 1403 
1805 1802 1408 1407 1412 1806 1809 1807 1411 
1415 1813 1774 1814 1419 1420 1817 1818 1423 
1424 1821 1822 1392 1427 1431 1825 1829 1826 
1396 1794 1435 1833 1400 1364 1801 1798 1439 
1837 1443 1444 1842 1841 1845 1451 1447 1448 
1810 1849 1416 1455 1853 1459 1460 1857 1858 
1428 1463 1861 1865 1432 1830 1471 1867 1436 
1475 1873 1834 1404 1440 1479 1838 1877 1483 
1484 1881 1885 1452 1487 1846 1889 1854 1456 
1491 1850 1893 1496 1890 1495 1464 1499 1894 
1901 1897 1467 1468 1866 1862 1507 1869 1472 
1870 1511 1909 1476 1874 1913 1515 1480 1519 
1878 1918 1917 1488 1523 1882 1925 1492 1527 
1929 1886 1531 1535 1933 1930 1500 1504 1898 
1937 1905 1503 1508 1902 1906 1512 1547 1949 
1910 1516 1555 1914 1551 1953 1520 1559 1957 
1921 1528 1563 1922 1965 1961 1532 1567 1571 
1926 1969 1536 1540 1934 1973 1539 1941 1544 
1938 1945 1543 1548 1942 1985 1946 1552 1587 
1989 1950 1556 1591 1993 1954 1560 1524 1595 
1599 1958 1203 1564 1962 1601 1968 1609 1568 
1572 1605 1966 1970 1575 1576 1974 1977 1580 
1621 1579 1978 1584 1981 1583 1223 1588 1625 
1982 1227 1592 1629 1986 1231 1596 1994 1990 
1997 1239 1600 1998 1637 1604 1643 2041 2002 
2043 2004 2042 1608 1612 2045 2008 2047 2049 
1647 2048 1616 2014 1615 2010 2016 2051 2017 
1620 1619 2018 2021 2020 2019 1624 1628 1663 
2061 2022 2024 2028 2027 1632 1631 2030 2026 
2029 2032 2031 1636 1635 1675 2033 2034 2035 
2075 2036 1640 1679 2038 2077 2040 2079 1648 
1644 2044 2083 2081 2119 1651 1652 2050 2046 
2052 2087 2085 1655 1656 2053 2054 2055 2056 
1660 1659 1699 2059 2057 2058 2060 2064 1664 
1668 2065 2062 2063 2068 1667 1671 1672 2069 
2066 2067 2072 2071 2070 1676 2073 2074 2076 
2113 1715 1680 1719 2115 2078 2117 2080 1683 
1684 2082 2084 2118 2159 2123 1687 2089 1692 
2086 1691 2088 2091 2092 2090 1695 1696 2093 
2094 2095 2096 1700 1704 2097 2101 2099 2104 
1703 1708 2105 2102 2103 2108 1707 1712 2109 
2106 2107 2112 2111 1711 1716 2110 2116 2153 
2151 1720 1755 2114 2120 2157 1688 1723 2125 
1728 2121 2122 2128 2129 1727 1732 2126 2127 
2132 1731 2133 1736 2130 2131 2135 1735 2098 
2100 2137 1744 2138 2141 2139 2144 1748 2145 
2142 2143 2148 1747 1752 2149 2146 2147 2152 
2189 1751 1756 1791 2150 2156 2193 2191 1759 
1760 2158 2154 2160 2195 2165 1763 1768 2162 
2168 1767 2169 1772 2166 2167 2171 1771 1775 
2134 2173 2136 2175 2140 1740 1779 2177 2178 
1780 2179 2180 2181 1783 1784 2184 2185 2183 
2182 2188 1788 1787 1792 2187 2186 2192 1827 
2229 1795 1796 2190 2196 2194 1724 1799 2161 
2199 2197 2200 2205 1803 1808 2202 2207 2203 
2204 1811 2170 2172 2209 2211 1776 1815 2213 
2174 2176 2215 1819 1820 2218 2217 2219 2220 
1823 1824 2221 2222 2223 2224 2227 1828 1832 
2225 2228 2226 2267 1831 1835 2232 2233 2230 
2236 2235 2201 1764 1800 2198 2237 1839 2164 
2239 1804 1843 1844 2241 2208 2245 2243 2206 
1847 1812 1851 2210 2249 2212 2251 2247 1816 
1855 2214 2253 2254 2216 2255 1859 1860 2257 
2258 2259 2260 1863 1864 2261 2263 2264 2262 
1871 2265 2269 2272 2266 2268 1836 2234 1875 
2273 2271 2275 1840 2238 2277 1879 2240 2279 
1848 1883 2285 2242 2283 2248 1852 1887 2246 
2289 2252 2287 2250 1856 1891 1896 2293 2291 
2256 2296 2295 1899 1895 1900 2294 2297 2299 
2300 1868 1903 2301 2298 2303 2305 2304 1872 
2270 2309 1911 2311 2307 1907 2308 1876 2274 
1915 2313 2276 2315 2278 1880 1919 2317 2244 
2280 2281 1888 1923 2325 2282 2288 1892 1927 
2329 2286 2292 2327 2290 1931 1936 2333 2331 
2336 2330 1935 1939 2335 2337 2334 2340 1904 
1908 2339 2302 2341 2343 1912 2306 1947 2349 
2310 2312 2347 1951 2351 1916 1955 2314 2353 
2316 2320 1884 1920 2321 2318 2284 2359 1928 
1963 2365 2322 2328 2363 2361 1932 1967 1972 
2326 2332 2369 2367 2372 1975 1971 2373 2370 
2371 2376 1940 1944 2338 2377 2375 2379 1943 
2345 1948 2342 2385 2344 2348 1952 2346 1987 
2389 2352 2387 1956 1991 2350 2354 2355 2356 
2357 1959 1960 1924 1999 2358 2324 2399 2397 
2360 1603 1964 2362 2001 2003 2364 2006 2005 
1607 2366 2368 2007 1611 2009 1976 1980 2012 
2013 2015 2374 2011 1979 2381 1984 2378 2380 
2384 1983 1623 1988 2382 2025 2383 2023 2388 
1627 1992 2386 2390 2392 2391 1995 1996 2393 
2394 2395 2396 1639 2000 2398 2037 2039 2400 
2402 2441 2404 2443 2445 2408 2447 2446 2448 
2449 2451 2452 2453 2414 2418 2420 2419 2423 
2422 2425 2428 2427 2429 2430 2426 2432 2431 
2434 2433 2436 2435 2475 2477 2438 2440 2479 
2481 2442 2444 2483 2519 2482 2485 2487 2489 
2488 2454 2450 2455 2456 2424 2461 2457 2459 
2464 2465 2462 2463 2468 2469 2466 2467 2472 
2471 2470 2473 2474 2476 2513 2515 2517 2478 
2480 2521 2484 2518 2559 2524 2525 2523 2486 
2492 2491 2490 2493 2497 2460 2495 2458 2501 
2499 2504 2502 2505 2503 2508 2509 2506 2507 
2512 2510 2511 2516 2553 2551 2155 2514 2555 
2520 2557 2124 2522 2558 2599 2528 2561 2526 
2529 2527 2531 2533 2494 2496 2535 2537 2500 
2498 2541 2539 2544 2545 2542 2543 2548 2546 
2549 2547 2552 2593 2550 2556 2591 2554 2597 
2595 2560 2163 2565 2563 2567 2562 2569 2530 
2532 2571 2534 2573 2536 2575 2538 2540 2577 
2578 2579 2581 2585 2582 2584 2583 2589 2588 
2587 2586 2592 2231 2629 2633 2590 2596 2631 
2598 2594 2635 2600 2566 2605 2568 2607 2570 
2609 2572 2611 2613 2614 2574 2576 2615 2580 
2617 2618 2619 2620 2621 2623 2624 2622 2625 
2626 2628 2627 2667 2630 2632 2636 2669 2671 
2637 2634 2601 2564 2639 2602 2603 2645 2608 
2643 2606 2610 2649 2612 2647 2651 2653 2654 
2616 2655 2658 2657 2659 2660 2661 2663 2664 
2662 2666 2665 2668 2707 2705 2673 2670 2675 
2672 2638 2677 2604 2640 2685 2642 2648 2683 
2646 2689 2652 2687 2656 2650 2693 2691 2696 
2695 2694 2697 2699 2700 2701 2698 2703 2704 
2702 2743 2706 2709 2711 2708 2713 2674 2676 
2680 2681 2641 2678 2679 2644 2323 2682 2725 
2688 2723 2729 2686 2692 2727 2733 2690 2731 
2736 2730 2734 2735 2737 2740 2739 2738 2741 
2744 2742 2745 2749 2710 2712 2747 2714 2716 
2717 2715 2720 2319 2718 2719 2721 2684 2759 
2722 2765 2728 2763 2761 2726 2769 2732 2767 
2772 2773 2771 2776 2770 2777 2774 2775 2780 
2785 2781 2779 2748 2783 2750 2746 2752 2751 
2753 2754 2755 2756 2757 2724 2758 2760 2799 
2762 2401 2403 2764 2406 2405 2766 2768 2407 
2409 2410 2413 2412 2411 2416 2417 2778 2415 
2784 2421 2786 2782 2788 2787 2789 2790 2792 
2791 2794 2793 2795 2796 2797 2437 2798 2439 
2800 2841 2802 2804 2843 2846 2845 2808 2847 
2849 2853 2851 2816 3182 2821 2814 2820 2819 
2825 2822 2828 2823 2827 2826 2830 2829 2832 
2831 2834 2833 2836 2875 2835 2877 2838 2840 
2879 2881 2842 2844 2883 2882 2885 2848 2852 
2887 2893 2850 2857 2856 2855 2861 2824 2818 
2859 2862 2865 2863 2868 2866 2869 2871 2867 
2872 2870 2873 2876 2913 2874 2917 2915 2878 
2880 2919 2918 2921 2884 2959 2923 2888 2889 
2886 2891 2892 2890 2897 2854 2860 2895 2864 
2858 2901 2899 2904 2905 2902 2903 2908 2909 
2906 2907 2912 2953 2910 2911 2916 2914 2957 
2955 2920 2958 2925 2924 2928 2926 2929 2927 
2931 2894 2896 2933 2900 2935 2898 2941 2937 
2939 2944 2945 2942 2943 2948 2949 2946 2947 
2952 2950 2993 2951 2956 2991 2954 2997 2995 
2960 2961 2922 2965 2963 2967 2930 2969 2932 
2971 2934 2973 2936 2975 2938 2977 2978 2940 
2979 2980 2981 2985 2982 2983 2984 2989 2988 
2986 2987 2992 3029 3033 2990 2996 3031 2994 
2999 2998 3000 2966 3005 2968 3007 2970 3009 
2972 3011 2974 3013 2976 3015 3017 3018 3019 
3020 3021 3022 3023 3024 3025 3026 3027 3028 
3067 3069 3030 3032 3036 3035 2962 2964 3037 
3039 3034 3003 3045 3002 3008 3006 3010 3049 
3012 3051 3047 3014 3053 3054 3016 3055 3057 
3058 3059 3060 3062 3061 3063 3064 3066 3065 
3068 3072 3105 3071 3073 3075 3070 3001 3038 
3004 3040 3043 3085 3042 3048 3083 3089 3046 
3052 3087 3050 3056 3093 3091 3096 3094 3098 
3095 3097 3099 3100 3101 3102 3103 3104 3108 
3109 3107 3111 3106 3074 3076 3077 3080 3041 
3078 3081 3079 3044 3082 3125 3088 3123 3086 
3129 3092 3127 3090 3133 3131 3136 3134 3137 
3135 3140 3138 3139 3141 3143 3110 3112 3145 
3113 3147 3116 3117 3114 3115 3120 3121 3118 
3119 3084 3159 3122 3128 3163 3161 3165 3124 
3132 3126 3169 3167 3130 3173 3170 3171 3176 
3177 3174 3175 3179 3142 3144 3181 3146 3148 
3149 3150 3152 3151 3153 3154 3155 3156 3157 
3160 3158 3199 2801 3162 2803 3164 3172 2806 
3166 2805 3168 2807 2809 2810 2813 2812 2811 
2815 2817 3178 3180 3184 3183 3186 3185 3188 
3187 3189 3190 3192 3191 3193 3194 3195 3196 
3197 2837 3198 2839 3200 3241 3202 3204 3243 
3245 3249 3208 3212 3210 3214 3216 3215 3221 
3217 3218 3220 3219 3225 3224 3228 3227 3226 
3222 3230 3229 3232 3231 3234 3233 3236 3235 
3275 3238 3277 3240 3279 3242 3281 3248 3244 
3247 3246 3251 3252 3250 3254 3255 3253 3256 
3257 3261 3259 3260 3264 3262 3265 3263 3268 
3269 3266 3267 3272 3271 3273 3270 3274 3313 
3276 3278 3317 3280 3319 3315 3318 3285 3283 
3282 3284 3287 3286 3289 3292 3291 3290 3297 
3293 3295 3296 3258 3301 3299 3304 3302 3305 
3303 3308 3309 3306 3307 3312 3353 3310 3311 
3316 3314 3357 3355 3320 3288 3325 3321 3323 
3328 3329 3326 3327 3332 3333 3294 3331 3335 
3300 3337 3298 3341 3339 3338 3344 3345 3342 
3343 3348 3349 3346 3347 3352 3393 3350 3351 
3356 3391 3354 3359 3358 3360 3322 3365 3363 
3368 3362 3330 3367 3371 3369 3334 3373 3336 
3375 3377 3378 3340 3379 3380 3382 3381 3383 
3384 3385 3389 3386 3388 3387 3392 3390 3395 
3396 3394 3324 3397 3361 3399 3366 3405 3403 
3407 3370 3409 3372 3411 3374 3414 3413 3376 
3415 3417 3418 3419 3420 3421 3422 3423 3424 
3425 3426 3427 3428 3432 3429 3433 3431 3430 
3435 3400 3364 3398 3437 3401 3439 3404 3445 
3406 3402 3408 3443 3410 3449 3412 3451 3447 
3453 3454 3416 3455 3457 3458 3459 3460 3461 
3462 3463 3464 3465 3469 3467 3471 3434 3436 
3475 3473 3438 3440 3477 3479 3442 3485 3448 
3483 3446 3489 3452 3487 3456 3450 3493 3490 
3491 3496 3495 3494 3498 3497 3499 3500 3501 
3468 3503 3505 3466 3470 3472 3509 3511 3513 
3474 3476 3515 3441 3481 3478 3444 3480 3525 
3482 3488 3523 3486 3529 3492 3527 3533 3531 
3536 3534 3537 3539 3535 3507 3502 3541 3504 
3508 3506 3549 3512 3547 3510 3517 3514 3551 
3516 3520 3518 3521 3484 3519 3559 3522 3561 
3528 3563 3565 3569 3526 3532 3567 3572 3530 
3573 3570 3571 3575 3538 3540 3577 3544 3545 
3542 3543 3548 3585 3550 3546 3552 3587 3557 
3554 3553 3555 3556 3558 3524 3560 3599 3201 
3562 3203 3564 3206 3205 3566 3568 3207 3209 
3574 3213 3211 3576 3580 3581 3579 3578 3584 
3583 3586 3582 3223 3588 3590 3589 3591 3592 
3594 3593 3595 3596 3237 3598 3597 3239 3600 
2 5 3602 3641 3608 3604 9 10 3610 
3606 3611 3607 370 14 3613 3614 3616 3615 
17 18 3618 3617 3620 3619 3621 22 65 
3622 3624 3628 3663 3626 3661 3630 3629 3632 
3631 34 3634 3633 3636 3635 3675 38 77 
3638 3677 3640 3679 6 3645 3642 3643 3647 
49 3612 3650 50 3649 3652 3651 53 3654 
3653 3655 3656 58 57 3658 3657 3659 3660 
101 3662 3665 3664 3668 69 66 3669 3666 
3667 3672 3671 73 74 3674 3673 3670 70 
3676 41 78 3678 3717 3715 3644 3680 85 
3646 3648 3681 3685 3683 3687 86 3689 3692 
3691 90 3690 94 93 3694 3693 3695 3696 
97 98 3699 3701 3697 3700 3704 3705 3702 
3703 3708 109 3709 3706 3707 106 3712 110 
113 114 3713 3753 3710 3711 3716 3751 42 
81 117 3714 3718 3719 3720 82 3682 3725 
3688 3723 3728 3686 3726 3729 3727 3732 3731 
3730 3733 3735 3736 138 141 3738 3698 3737 
3741 3739 3744 3745 3742 3743 3748 3749 3746 
149 3747 146 3752 153 3750 3754 3755 3756 
121 118 3721 3757 3684 3759 122 3765 165 
3722 3763 3768 3762 162 169 3769 3766 3767 
3772 170 3734 173 3773 3771 3775 178 3777 
3778 3740 177 3779 3780 185 3785 3781 3782 
181 3783 182 3784 3788 150 189 3789 3786 
3787 3791 3793 3760 3790 3795 3797 158 161 
3758 3724 3761 3799 3802 3805 3803 3808 3804 
209 3770 3809 3807 3811 213 3813 3774 3776 
3815 217 3818 3817 3819 218 3820 221 225 
3821 3822 3823 3824 190 3825 3792 3829 3827 
3831 3794 3796 3833 3835 3800 3764 3798 3801 
3837 3839 3845 3841 242 3843 3844 3806 3849 
3810 3812 3851 3847 214 253 254 3814 3853 
3854 3816 3855 261 3857 3858 257 3859 3860 
3861 3828 3865 3863 229 3826 3830 3832 3871 
3869 3834 3836 3873 3875 278 3877 3838 3840 
3879 281 3842 3885 3848 3883 289 3889 3846 
3852 3887 293 250 3850 3893 3856 3891 3896 
3895 258 3897 3894 3899 3864 3901 3867 3862 
3868 3866 3870 3872 3909 3911 3874 3913 3876 
3915 3917 3878 3880 3919 3881 3925 3882 3888 
325 3923 329 286 3929 3886 3892 3927 290 
3890 3933 3931 3935 298 3898 3937 3900 3904 
3907 3905 3902 3903 3908 3949 3906 3912 3947 
3910 3914 3953 3916 3951 3955 3921 3884 3918 
3920 321 3959 3922 3961 3928 3963 3965 330 
326 3926 3969 3932 3967 3971 333 337 3930 
3934 3973 3936 3940 338 341 3938 3939 3944 
3941 3945 3943 3985 3942 3948 3946 3989 3952 
3987 3954 3950 3956 3991 3957 3958 3924 3960 
3999 1 3601 3962 3603 362 3964 366 3605 
3966 3968 3609 3972 374 373 377 3970 3975 
3976 3974 3977 3980 378 3978 3981 3979 3984 
25 3983 3625 3982 3623 3988 386 3990 3986 
3627 3992 394 3993 3994 3995 3996 37 3637 
3998 3997 3639 4000 
type 1 4000 int
1 1 1 1 1 1 1 1 1 
1 1 1 1 1 1 1 1 1 
1 1 1 1 1 1 1 1 1 
1 1 1 1 1 1 1 1 1 
1 1 1 1 1 1 1 1 1 
1 1 1 1 1 1 1 1 1 
1 1 1 1 1 1 1 1 1 
1 1 1 1 1 1 1 1 1 
1 1 1 1 1 1 1 1 1 
1 1 1 1 1 1 1 1 1 
1 1 1 1 1 1 1 1 1 
1 1 1 1 1 1 1 1 1 
1 1 1 1 1 1 1 1 1 
1 1 1 1 1 1 1 1 1 
1 1 1 1 1 1 1 1 1 
1 1 1 1 1 1 1 1 1 
1 1 1 1 1 1 1 1 1 
1 1 1 1 1 1 1 1 1 
1 1 1 1 1 1 1 1 1 
1 1 1 1 1 1 1 1 1 
1 1 1 1 1 1 1 1 1 
1 1 1 1 1 1 1 1 1 
1 1 1 1 1 1 1 1 1 
1 1 1 1 1 1 1 1 1 
1 1 1 1 1 1 1 1 1 
1 1 1 1 1 1 1 1 1 
1 1 1 1 1 1 1 1 1 
1 1 1 1 1 1 1 1 1 
1 1 1 1 1 1 1 1 1 
1 1 1 1 1 1 1 1 1 
1 1 1 1 1 1 1 1 1 