# vtk DataFile Version 4.0
Generated by LAMMPS
ASCII
DATASET POLYDATA
POINTS 4000 float
4.6459 1.77394 0.812969 2.49788 0.0254747 0.452227 4.41298 -0.499657 2.5321 
8.4996 1.68565 0.979087 10.3283 -0.536086 1.13056 6.60192 -0.262283 0.848549 
6.53703 1.7255 2.90156 8.34466 -0.397814 3.1219 10.3843 1.39532 -1.25544 
6.84894 1.43013 -1.07127 8.52387 -0.56976 -1.09055 12.4154 1.47762 0.924553 
16.3606 1.15639 0.965433 20.0913 0.650611 0.831175 18.0666 -1.15039 0.926892 
20.6889 2.61309 2.92821 20.1382 -1.33176 41.7893 24.6227 -0.0158431 1.14153 
24.0547 42.2545 -0.91085 22.2897 -1.50693 1.16267 22.5228 0.569347 2.92016 
24.7382 2.42815 2.7881 28.1654 -0.115307 0.872393 26.6389 2.0381 0.693933 
26.2299 41.66 1.1377 28.6183 2.09317 2.70522 28.4217 41.6312 3.27763 
26.5756 0.459879 41.4779 31.0504 0.283617 -0.138061 32.8661 41.8942 0.050059 
33.1623 0.293775 1.98232 38.2381 41.907 2.14271 34.9397 0.211889 -0.101623 
36.5153 42.0949 -0.106843 36.5033 2.47068 0.274561 34.835 42.0068 2.10568 
34.5765 2.59408 2.40486 36.5315 0.369476 2.33402 2.84562 3.78714 0.874364 
4.7086 5.88476 1.16976 4.85345 3.5766 41.6616 2.88368 5.54648 41.724 
6.6306 3.84446 0.952251 8.75092 5.84226 0.92101 8.7719 3.70654 -1.04612 
10.5498 3.54852 0.867875 10.7283 5.61221 -1.14938 6.85291 5.7998 -1.13283 
14.4694 3.43806 0.87459 12.6182 5.62641 1.01391 14.7257 7.20001 0.935228 
12.5253 3.61626 2.92268 10.7714 5.85004 3.09468 14.8662 5.30656 3.1426 
12.9797 7.55712 3.10887 18.5977 2.9998 0.871835 16.7547 5.10012 0.946903 
16.839 7.23096 41.8824 18.9509 6.96231 0.918248 16.4908 3.08471 2.80653 
18.9284 4.84896 2.98246 22.6688 2.4524 0.887836 20.9066 4.72365 0.797816 
24.8077 4.54944 0.849146 22.866 4.56344 2.90383 20.9702 6.77768 2.94257 
23.0691 6.68638 0.744468 25.1675 6.68464 2.8481 29.2885 2.50148 -0.0880844 
27.5869 4.76288 0.0316258 26.1949 7.13875 0.120565 28.2318 6.79083 2.08629 
26.8183 4.23938 2.77117 29.798 4.62062 1.8552 33.2894 2.27071 -0.291429 
31.6355 4.35747 -0.115154 30.9305 7.24992 2.53774 32.7672 6.96847 0.492568 
31.5511 2.48293 2.03476 32.7405 5.15555 2.52592 37.1339 5.84949 0.937565 
34.4771 4.59402 0.429495 35.3791 5.91345 2.8819 2.82568 7.98405 1.03379 
5.01679 9.9662 1.10182 4.79783 7.78498 -0.868828 6.86285 7.89189 1.01066 
10.9382 7.73669 0.889915 8.82542 9.92344 1.07053 6.91289 9.80573 -0.935015 
8.85349 7.56186 3.0123 10.7183 9.52821 3.15748 6.98074 9.92885 3.25687 
9.15845 11.8695 -0.934979 11.0375 9.76018 -1.06339 13.0056 9.59617 0.992466 
15.1775 9.42892 3.00562 16.9143 9.19181 0.793239 19.1465 11.1803 0.561239 
17.0864 11.3926 2.69807 21.087 8.92827 0.801419 22.5104 11.3838 0.176809 
24.2778 9.2321 0.07671 23.2442 8.89109 2.60797 24.5959 11.4081 2.35573 
28.3535 8.80888 -0.189018 26.384 11.2287 0.123196 26.3929 9.27022 2.10146 
27.2984 11.8947 2.75406 30.0994 6.59711 -0.114248 29.1497 11.6154 0.712883 
30.9673 9.26602 0.670832 28.9574 9.52724 2.53727 37.0933 7.67679 41.7283 
37.009 8.28327 3.44422 36.9776 10.347 1.08604 35.4008 8.10963 1.06029 
33.515 10.3463 1.12978 35.3785 10.1308 -1.05941 3.29236 12.2208 1.22073 
5.1233 12.0027 -0.65438 5.32361 14.171 1.07097 3.39515 14.2383 3.31371 
7.13996 12.1359 1.30878 9.446 13.9401 1.12867 9.27107 11.7972 3.13615 
7.35643 14.119 3.11879 11.2722 13.8755 -0.904898 15.0495 11.4878 0.847382 
12.9693 11.7184 -1.07266 11.1592 11.5656 1.15508 13.3011 13.5547 1.13927 
15.505 15.6061 0.680657 13.6313 15.814 2.95699 11.6343 13.8289 3.02913 
15.2191 13.5873 -1.06933 17.3608 13.5187 0.685349 20.6962 13.554 0.440751 
24.8111 13.4279 0.357128 22.7174 13.239 2.42537 22.9607 15.3745 0.126736 
23.7094 16.2397 3.00095 21.1006 15.6183 2.35042 27.6253 14.0239 0.948136 
25.5896 16.2845 0.819394 25.5733 14.133 2.8844 31.8435 12.594 1.0734 
30.1982 14.8101 1.31405 31.5208 14.8702 3.62917 31.9671 14.5694 -0.798861 
35.2697 12.5098 1.14533 37.276 12.3917 -0.923033 37.3239 14.3737 1.17937 
33.543 14.6278 1.35819 33.6211 12.3421 -0.856482 33.4102 12.6548 3.38372 
35.6917 14.4505 3.24538 35.4104 14.6384 -0.713839 3.60733 16.2408 1.36461 
5.496 16.2687 -0.875411 5.80433 18.2895 1.35228 3.76724 18.4991 -0.598918 
4.05655 18.4446 3.50003 7.43533 16.1426 1.20524 11.5296 15.9832 1.09549 
9.63099 18.0848 1.15291 7.70047 18.0712 -0.856314 9.38979 15.989 -0.92289 
13.4051 15.8102 -1.06773 13.5914 18.0103 1.00259 11.4906 17.9304 -1.00984 
15.1029 17.9245 41.6355 13.2067 20.0368 41.6836 18.9271 15.6976 0.43805 
17.2359 17.8665 0.492691 19.2882 17.6478 2.47119 19.3713 19.6267 0.305473 
17.4791 15.6889 2.76701 19.1567 17.7591 41.3047 17.2179 19.8367 41.3593 
20.2266 20.3607 3.13617 21.0887 17.5536 0.371199 23.7513 18.3864 0.903366 
21.8523 18.4199 3.09616 21.7385 20.6403 0.911226 28.2081 16.9513 1.38845 
26.336 19.2379 1.49671 28.3728 19.0216 -0.628283 31.9637 16.9746 1.63463 
30.1352 16.7578 -0.793069 30.1391 19.0077 1.6632 31.9927 19.0427 3.69428 
32.008 19.0442 -0.394055 33.507 16.8564 -0.531649 38.0837 18.6541 1.49774 
37.7021 16.6078 -0.535763 35.7159 16.735 1.22448 33.9463 18.8722 1.58361 
36.0252 18.5831 3.56624 34.1506 20.896 3.5803 35.6958 18.6895 -0.624486 
6.00288 20.3984 -0.81711 4.17246 20.5145 1.34201 6.179 22.344 1.51595 
4.23286 22.5706 3.64234 4.47022 24.5933 1.76671 6.19774 20.3986 3.33012 
4.2202 22.4362 -0.53976 7.93538 20.248 1.29548 9.9907 22.2001 1.03048 
8.18006 22.182 3.6019 7.89866 22.2173 -0.751793 9.00753 24.6176 41.5298 
15.4314 20.1272 0.689499 11.6788 20.0777 1.0675 13.3453 22.4818 0.770194 
15.6762 24.1138 0.722851 15.3291 22.1791 2.73692 15.0677 22.1024 41.5001 
17.4172 21.8531 0.500462 18.3466 22.3825 3.26819 18.5071 24.5707 1.34405 
16.678 24.6731 3.24153 19.3454 21.8475 41.2966 17.4214 24.0501 41.4976 
20.0978 22.5641 1.28316 22.5398 23.7251 1.50818 24.3271 21.2981 1.48583 
28.434 21.2685 1.55815 26.6038 23.4004 1.48553 26.6194 21.2433 -0.446644 
24.6358 23.3531 -0.580462 30.2173 21.2439 3.50632 32.0681 21.0285 1.61969 
30.3206 23.2556 1.51174 32.4722 24.9498 1.41094 30.1102 21.0346 -0.533535 
36.0919 20.7708 1.42523 34.0551 20.7972 -0.626648 2.33547 22.583 1.719 
34.2496 22.7685 1.51004 34.4918 24.8166 -0.534152 38.1199 20.5392 3.39397 
36.4062 22.7042 -0.492395 2.59726 24.7522 -0.281169 6.76992 26.3625 1.54826 
2.37077 24.6537 3.97349 4.68367 26.5122 3.66892 6.19498 24.3986 -0.570911 
4.78178 26.5991 -0.491445 8.36794 24.3097 1.55324 9.41239 26.9151 0.529931 
7.53683 29.052 0.55812 9.63399 29.0603 41.5229 7.60246 27.0832 41.4611 
11.2504 24.7044 0.593525 13.5975 26.4737 0.713151 11.6117 28.948 0.524269 
13.0632 28.8467 2.97196 15.7362 26.1526 41.5286 11.6461 26.868 41.4763 
16.7469 26.5963 1.28914 16.8964 28.8128 -1.0189 19.2047 28.2248 1.22758 
18.6301 26.6884 -0.957183 20.8921 25.865 1.25413 22.9479 27.7815 1.33004 
22.862 25.4919 -0.685068 21.191 27.8837 -0.832346 24.8858 25.5678 1.41704 
28.6086 25.252 1.5028 26.9413 27.575 1.5024 28.7548 27.5528 -0.501725 
29.2424 29.3882 1.41373 26.8159 25.4983 -0.48282 24.8563 27.6981 -0.611818 
30.8753 27.2483 1.66682 32.8619 29.0719 1.7924 30.6162 25.4026 -0.486474 
32.9444 26.969 -0.568264 2.57901 26.5851 1.77962 36.3833 24.6857 1.61602 
34.6798 26.8816 1.6458 37.0659 28.7463 1.56302 36.5613 26.8477 -0.333413 
2.96397 28.7077 -0.551478 4.8289 28.5614 1.44446 5.91067 31.4188 0.400207 
3.94633 31.4077 41.4058 5.84209 33.2986 2.53581 5.75233 29.2962 41.3196 
37.9673 33.5525 41.1599 9.77396 31.154 0.423072 9.62152 33.1769 2.62979 
8.06648 33.1774 0.230744 11.4661 33.0844 0.782038 7.71756 31.1655 2.47155 
15.0973 28.6469 1.01096 11.2572 30.9174 2.74833 13.424 30.7276 0.938876 
13.8602 28.4379 41.4236 15.0063 30.9448 -1.17632 17.3131 30.606 1.0475 
15.5269 32.555 1.16928 19.3513 32.1505 1.03849 17.3641 32.5085 -1.01984 
19.3551 30.0892 -1.0139 21.1232 30.114 1.21338 23.1413 31.9806 1.30812 
21.3234 32.2675 -0.995608 23.2184 29.9096 -0.700016 25.1576 29.7947 1.18123 
27.0408 29.8199 -0.654052 27.2154 31.7699 1.35829 25.2067 31.9064 -0.683746 
30.8968 29.1499 3.76625 31.2279 31.1581 1.47644 31.1975 29.1324 -0.652281 
29.261 31.4535 3.56837 29.2748 31.4099 -0.576489 3.30666 30.7965 1.31423 
35.0433 30.9105 1.41909 37.2814 32.7863 0.942513 35.2933 32.7909 -0.865099 
37.1378 30.8126 -0.748015 4.0162 33.5435 0.213844 6.21309 35.3398 0.210355 
4.36079 37.5238 0.119066 5.89945 37.5064 2.54982 6.28973 37.5047 41.0522 
4.13196 35.5399 2.42831 9.88189 35.3294 0.642307 10.1801 39.3254 1.07282 
7.70924 35.3445 2.55013 13.7463 34.8184 0.941655 11.8476 37.1669 0.95186 
13.9011 36.8923 -0.86572 13.9196 39.0007 1.12008 12.0205 39.1435 3.23 
17.5661 34.2493 1.06995 15.8645 36.8227 1.06028 19.5759 36.3875 1.21349 
17.8416 36.5717 -0.773151 15.7432 34.7951 -0.784272 21.6134 34.1571 1.17164 
23.6368 35.9315 1.24083 21.4085 36.3875 3.23863 21.7336 36.1221 -1.05588 
23.485 34.1077 -0.841067 25.2907 33.7723 1.23646 27.503 35.6021 1.3006 
25.6803 35.9979 -0.900403 27.3919 33.743 -0.78439 25.6085 35.7399 3.27119 
33.4264 33.2438 1.1771 31.3428 33.3984 -0.708729 29.3551 33.4257 1.38372 
31.6738 35.4364 1.21985 33.8085 37.334 1.01117 33.8338 35.2659 -0.934032 
33.8383 35.1291 3.26562 35.5479 32.8318 3.31013 2.3991 35.7121 0.206267 
35.8128 35.1385 0.918147 4.28733 41.7014 0.457451 6.21651 39.4455 0.56221 
4.03838 39.6955 2.55847 2.32284 39.9314 0.131617 7.96027 37.2924 0.462296 
8.18939 41.3681 0.915836 6.36029 41.5938 2.67771 7.97414 39.7023 41.5483 
14.2641 -0.674271 0.90417 12.1899 41.169 1.13339 14.3465 41.0571 3.09152 
12.2271 -0.668219 2.95023 14.1397 40.9964 -0.965707 17.8678 38.6237 0.997891 
16.1033 40.8742 0.89866 19.9539 40.6299 1.10419 15.9913 38.6522 3.27997 
18.1241 40.821 -1.06109 15.8844 38.7568 -0.905589 21.9325 38.2337 0.994242 
23.8119 40.042 0.950236 23.7027 38.0336 3.17326 19.927 38.554 -1.0409 
23.8998 37.9537 -0.986197 22.0951 40.4888 3.07349 21.9681 40.3084 -0.913833 
25.6642 37.8961 1.24273 29.8796 37.5625 1.2654 28.0081 39.5714 1.18437 
25.8997 39.851 -0.893102 25.9957 39.7947 3.15299 29.9834 39.3687 3.14268 
30.0596 41.3927 0.794079 31.9677 39.3275 1.05483 33.8313 39.2757 2.94508 
[...]
POINT_DATA 4000
FIELD FieldData 6
id 1 4000 int
8 4 405 12 11 7 406 409 10 
6 9 16 20 24 19 461 21 28 
25 23 422 465 32 67 27 469 429 
26 36 35 434 401 40 39 79 437 
477 438 43 48 45 42 47 52 49 
51 50 46 55 56 95 453 450 454 
493 59 60 97 99 457 458 63 64 
68 462 501 103 505 71 72 107 509 
466 470 75 76 513 115 473 474 44 
80 478 83 88 85 87 91 92 86 
489 490 486 129 90 96 494 100 139 
537 104 143 108 502 545 112 147 506 
549 111 151 116 510 81 481 84 119 
120 118 123 125 128 522 127 132 529 
526 130 135 133 131 136 175 573 530 
134 140 144 148 542 183 585 581 152 
187 546 155 156 554 154 159 121 124 
160 157 557 558 158 163 165 168 162 
562 167 171 172 166 169 173 176 170 
174 213 179 180 578 219 577 178 217 
621 184 188 582 223 191 192 190 195 
193 196 594 194 197 164 161 199 200 
598 637 198 205 203 208 602 243 605 
202 207 212 606 206 249 215 211 216 
255 614 214 220 618 259 657 218 257 
224 228 227 231 232 229 226 633 235 
236 275 233 239 237 204 240 277 601 
238 241 248 641 642 245 242 247 252 
287 289 246 251 256 291 693 254 250 
260 297 264 258 263 268 265 262 267 
271 272 270 311 269 266 276 315 273 
274 244 279 280 319 278 281 283 288 
282 725 285 321 292 729 327 331 686 
295 690 296 293 294 299 300 304 298 
301 303 308 302 305 307 309 312 306 
713 316 313 710 310 284 320 359 357 
318 323 328 363 765 365 722 332 371 
726 335 336 334 375 773 339 340 344 
338 337 343 348 742 342 345 347 352 
346 349 746 355 353 351 356 395 354 
754 757 324 360 3 368 762 364 367 
372 766 366 15 376 774 413 374 379 
380 384 777 378 377 383 388 785 381 
385 782 382 387 391 392 386 786 790 
31 396 794 793 433 397 399 400 798 
402 408 802 403 805 412 806 809 407 
411 414 410 416 455 451 415 418 417 
420 424 419 425 428 463 865 426 427 
432 826 467 430 431 471 436 404 440 
439 801 838 445 443 442 448 449 446 
447 849 452 846 487 456 854 459 857 
460 858 497 897 861 901 464 468 905 
503 862 472 507 866 909 475 476 874 
479 441 444 480 841 877 878 485 483 
482 488 885 882 889 492 527 886 491 
890 495 496 531 535 498 499 500 898 
941 504 508 902 543 511 512 547 906 
910 515 514 516 913 914 517 519 484 
518 520 881 917 525 523 925 528 563 
965 569 532 929 567 969 926 534 930 
533 536 571 538 539 540 541 544 548 
942 583 981 949 551 552 550 555 553 
556 954 521 559 524 560 599 957 921 
958 565 568 962 603 1005 566 572 607 
966 570 613 574 575 576 611 615 974 
977 580 579 619 978 617 1017 584 588 
586 589 587 591 592 590 593 595 596 
1033 597 561 1001 564 600 1037 608 1002 
643 1045 649 609 612 1010 647 1006 1049 
610 616 655 651 620 624 622 625 623 
628 630 627 629 626 631 632 634 635 
1030 636 675 1073 639 677 604 638 640 
1038 645 648 644 689 646 652 687 653 
654 650 691 656 1054 661 658 659 660 
664 665 662 663 668 669 667 671 666 
670 672 674 673 676 1074 678 679 680 
1077 683 685 682 688 684 723 721 1121 
692 727 695 694 696 1094 735 697 698 
699 700 705 701 702 1105 704 703 708 
706 1109 709 707 712 714 711 715 716 
1113 717 718 681 719 720 728 724 731 
730 732 1126 733 734 736 775 737 1137 
741 739 738 740 743 745 1145 744 748 
751 749 750 747 752 753 755 756 1153 
761 797 759 758 760 799 763 768 1165 
1162 769 767 772 1166 1170 770 1169 771 
776 1174 778 781 421 779 780 1181 817 
1178 423 783 784 788 1182 787 1189 789 
792 795 791 435 796 1190 764 800 808 
803 1202 1205 812 807 811 1206 1210 1209 
814 810 816 1253 853 815 1213 818 820 
859 824 821 819 822 828 823 825 1265 
869 832 827 1269 867 829 830 834 871 
836 875 873 833 1230 1234 804 840 845 
842 843 848 1245 1242 847 851 850 852 
887 1249 1246 855 856 1254 1250 860 1258 
1257 899 1297 863 864 868 903 1305 1301 
872 911 870 876 1241 879 844 880 1278 
883 888 1285 1282 891 892 927 1290 1289 
894 1293 895 893 896 1294 1333 933 900 
945 904 908 1302 943 1341 1345 907 912 
1306 915 916 955 1314 884 918 919 920 
1281 1318 922 923 928 1325 963 1322 1365 
931 932 1326 1330 934 935 936 1334 975 
1373 937 938 939 1337 940 979 1338 944 
948 985 951 947 946 952 987 950 993 
953 956 961 924 959 960 997 1357 1358 
1361 968 1362 1009 970 967 971 972 1007 
1366 1409 1011 973 976 1015 980 984 1025 
983 982 988 986 989 990 992 1429 991 
1390 994 995 996 1393 998 999 964 1000 
1039 1003 1008 1402 1043 1405 1441 1012 1406 
1013 1014 1053 1016 1055 1051 1021 1018 1057 
1019 1020 1024 1065 1022 1023 1028 1029 1026 
1027 1032 1034 1031 1035 1430 1036 1041 1004 
1040 1042 1445 1048 1442 1044 1081 1046 1089 
1047 1052 1087 1449 1050 1093 1056 1091 1061 
1097 1058 1060 1059 1099 1064 1062 1063 1068 
1069 1066 1067 1071 1072 1075 1070 1076 1473 
1470 1078 1079 1080 1478 1085 1082 1083 1088 
1084 1125 1123 1521 1086 1092 1127 1090 1095 
1133 1096 1494 1098 1101 1100 1498 1501 1104 
1139 1102 1103 1108 1106 1107 1509 1112 1110 
1510 1115 1111 1114 1116 1155 1514 1117 1119 
1118 1120 1159 1481 1518 1517 1122 1124 1128 
1161 1163 1129 1131 1132 1130 1530 1135 1136 
1134 1533 1534 1138 1140 1144 1177 1141 1143 
1142 1148 1183 1146 1149 1147 1152 1589 1549 
1550 1151 1154 1150 1156 1593 1554 1157 1158 
1160 1199 1557 1558 1168 1164 1167 1171 1172 
1569 1566 1570 813 1173 1175 1176 1573 1574 
1577 1179 1180 1184 1185 1188 831 1187 1186 
1191 1192 1229 1586 1233 1195 1193 835 1590 
1194 1196 1198 1197 837 839 1200 1208 1204 
1212 1606 1610 1247 1207 1649 1609 1211 1214 
1216 1215 1614 1613 1218 1220 1618 1221 1222 
1261 1224 1228 1263 1665 1226 1267 1232 1630 
1273 1236 1275 1235 1238 1240 1279 1277 1243 
1248 1283 1642 1645 1251 1252 1650 1291 1646 
1653 1255 1256 1654 1693 1661 1657 1259 1260 
1658 1299 1697 1262 1264 1268 1303 1309 1266 
1272 1311 1271 1270 1313 1274 1276 1713 1315 
1244 1280 1317 1288 1323 1321 1685 1329 1287 
1689 1286 1292 1686 1295 1690 1296 1694 1298 
1300 1698 1339 1737 1304 1308 1702 1741 1343 
1310 1307 1312 1749 1710 1316 1753 1351 1319 
1284 1320 1721 1328 1363 1725 1722 1765 1327 
1332 1367 1371 1729 1331 1733 1730 1335 1336 
1375 1734 1773 1340 1344 1377 1342 1348 1383 
1742 1745 1347 1349 1346 1352 1746 1355 1353 
1350 1354 1356 1391 1324 1359 1360 1797 1399 
1397 1758 1761 1368 1403 1364 1401 1801 1369 
1372 1411 1370 1374 1376 1415 1378 1379 1417 
1380 1419 1381 1385 1421 1382 1384 1388 1821 
1389 1387 1386 1392 1786 1394 1395 1396 1435 
1398 1400 1439 1437 1798 1408 1404 1841 1407 
1410 1412 1451 1413 1414 1453 1416 1455 1457 
1461 1418 1420 1459 1422 1425 1424 1423 1428 
1463 1426 1427 1431 1432 1433 1434 1436 1438 
1440 1479 1477 1838 1877 1443 1448 1444 1885 
1489 1446 1447 1452 1487 1846 1450 1454 1493 
1491 1456 1495 1458 1460 1464 1465 1462 1505 
1468 1469 1466 1467 1472 1471 1475 1474 1476 
1913 1874 1480 1519 1917 1878 1485 1482 1483 
1488 1525 1523 1486 1492 1529 1527 1490 1496 
1531 1497 1499 1500 1537 1898 1504 1502 1503 
1508 1905 1506 1507 1511 1512 1547 1906 1513 
1553 1515 1516 1555 1910 1914 1484 1520 1918 
1921 1565 1522 1528 1524 1922 1561 1526 1532 
1567 1535 1536 1934 1581 1539 1941 1538 1540 
1544 1937 1938 1541 1545 1542 1543 1548 1583 
1546 1946 1552 1587 1949 1551 1556 1595 1591 
1953 1993 1954 1597 1559 1560 1599 1201 1203 
1562 1563 1568 1564 1962 1571 1572 1970 1575 
1576 1974 1973 1578 1217 1579 1219 1580 1617 
1977 1978 1585 1225 1582 1584 1223 1588 1985 
1989 1227 1986 1592 1629 1990 1231 1594 1596 
1994 1237 1598 1239 1600 1637 1602 1641 1608 
1604 1643 2001 1612 1647 1611 2010 1616 2014 
2013 1620 1619 2018 1624 1659 2057 1625 1622 
1621 2061 1628 1663 2022 1626 1632 2029 1669 
1627 1631 2030 1673 1634 1636 1675 1677 1638 
1640 1639 2038 2077 1648 1644 2085 1651 2049 
1652 2046 2050 1655 1656 1695 2093 2053 2054 
1660 1664 2097 2058 1662 1668 1703 1705 1709 
1670 1667 1666 1672 1707 1711 1671 1674 1676 
1715 2074 1678 1679 1680 1719 1717 1682 1683 
1688 1723 2082 2125 2089 1687 1692 2086 1691 
1696 2094 1735 2090 1699 1700 2098 2137 2141 
1704 1701 1708 1706 1712 1747 2106 1714 1716 
1755 2114 1681 1684 1718 1720 1759 1757 1728 
1763 2121 2161 2122 1769 1727 2129 1726 1732 
1767 2126 2169 1731 1736 1771 2133 2130 1738 
1739 1740 1779 2138 2177 1743 1744 1748 1783 
1752 1789 1787 1793 1750 2150 1754 1751 1756 
2154 1724 1760 1805 1762 1768 1803 1764 1766 
1809 1770 1772 1807 2170 1811 1775 1813 1776 
1774 1815 2213 1777 1817 1780 1778 1819 1782 
1785 1825 1781 1784 1788 1823 2182 1790 1791 
1792 1831 1794 1795 1796 2233 1799 2201 1800 
1839 1837 2237 1802 1808 1843 1804 2245 1810 
1806 1849 1812 1851 1847 1814 1816 1855 2214 
1853 1818 1857 1820 1859 2261 1822 1861 1824 
1828 1863 1826 1830 1827 1829 1832 1833 1835 
1834 1836 1875 2234 1840 2277 1879 2238 1842 
1845 1848 1883 2281 1850 1852 1889 2289 1854 
1856 1895 1893 1891 1858 1897 1860 1899 2297 
1862 1865 1864 1868 1869 1866 1870 1871 1867 
1872 1873 1876 1915 1844 1880 1919 1881 1882 
1888 1923 1925 2325 1929 1887 1886 1892 1927 
2329 1894 1890 1931 1896 1933 1935 1900 1901 
1904 1902 1945 1903 2305 1908 1943 2302 2345 
1907 1909 1947 1912 2306 2309 1911 1916 2353 
1955 2310 2314 1884 1920 1959 2318 2317 1961 
1928 1963 1924 1965 2365 1926 1932 1969 1967 
1930 1936 1971 1939 1940 1944 2341 2338 1942 
1948 1981 1983 2342 2385 1950 2349 1952 2346 
1951 2350 1956 1995 2354 1958 1997 1957 1960 
1999 1605 1603 1968 1964 2005 1607 1966 1972 
1615 1975 1976 2374 2017 1979 1980 2021 2377 
1982 1623 2025 1984 1988 2382 1987 1991 1992 
2386 2390 2389 1633 1635 1996 2393 2394 1601 
1998 2000 2397 2002 2008 2402 2401 2045 2043 
2006 2012 2047 2410 2016 2055 2015 2414 2413 
2020 2418 2059 2457 2019 2024 2028 2425 2465 
2026 2032 2027 2031 2033 2034 2036 2035 2433 
2434 2004 2040 2039 2041 2438 2042 2048 2044 
2441 2445 2485 2051 2052 2087 2446 2449 2489 
2091 2056 2454 2493 2453 2450 2060 2064 2065 
2063 2062 2068 2462 2103 2069 2109 2067 2066 
2072 2107 2470 2073 2070 2071 2075 2076 2111 
2079 2078 2080 2478 2477 2083 2088 2123 2525 
2482 2481 2521 2092 2486 2529 2095 2490 2096 
2101 2099 2100 2104 2105 2102 2145 2108 2143 
2545 2110 2509 2506 2112 2510 2151 2115 2113 
2116 2514 2081 2118 2117 2084 2119 2120 2517 
2128 2163 2124 2522 2127 2132 2167 2526 2134 
2131 2135 2173 2136 2175 2139 2140 2538 2179 
2185 2144 2142 2148 2181 2183 2149 2146 2189 
2147 2187 2152 2153 2155 2156 2193 2157 2159 
2158 2160 2199 2597 2197 2165 2162 2205 2168 
2601 2565 2166 2172 2207 2171 2174 2176 2573 
2178 2180 2217 2219 2617 2184 2188 2223 2221 
2225 2186 2190 2191 2192 2629 2227 2590 2231 
2194 2195 2196 2594 2235 2164 2198 2200 2637 
2598 2202 2203 2208 2602 2209 2206 2212 2210 
2211 2215 2216 2255 2257 2218 2220 2618 2259 
2224 2657 2222 2265 2228 2229 2226 2230 2232 
2626 2271 2236 2630 2673 2239 2204 2240 2638 
2242 2243 2641 2248 2244 2283 2246 2247 2249 
2251 2252 2250 2254 2293 2253 2256 2295 2654 
2258 2260 2299 2264 2301 2262 2263 2268 2303 
2270 2269 2266 2267 2272 2311 2273 2274 2275 
2276 2713 2241 2278 2279 2280 2678 2285 2282 
2288 2682 2286 2287 2292 2291 2290 2333 2294 
2296 2335 2690 2298 2337 2300 2339 2304 2308 
2343 2705 2709 2307 2312 2706 2749 2347 2351 
2313 2315 2316 2355 2753 2714 2717 2284 2681 
2319 2320 2359 2322 2323 2328 2326 2327 2332 
2331 2369 2334 2373 2730 2330 2336 2371 2375 
2340 2344 2381 2781 2348 2745 2742 2785 2352 
2387 2746 2750 2356 2754 2793 2358 2321 2357 
2324 2360 2757 2362 2003 2363 2368 2009 2366 
2007 2367 2372 2370 2011 2376 2773 2379 2378 
2380 2778 2417 2421 2023 2383 2384 2388 2782 
2429 2392 2789 2786 2391 2395 2396 2794 2037 
2361 2398 2399 2364 2400 2797 2761 2798 2408 
2802 2404 2405 2805 2801 2406 2412 2806 2451 
2416 2455 2814 2853 2810 2420 2424 2818 2422 
2428 2825 2423 2426 2432 2427 2826 2829 2430 
2431 2436 2435 2830 2834 2437 2440 2439 2479 
2837 2877 2443 2442 2448 2444 2845 2881 2842 
2885 2447 2452 2487 2849 2846 2889 2491 2456 
2850 2458 2461 2501 2460 2459 2857 2858 2464 
2861 2505 2463 2862 2468 2503 2905 2469 2466 
2467 2472 2507 2511 2869 2866 2473 2474 2475 
2471 2476 2874 2873 2480 2878 2483 2488 2523 
2484 2921 2882 2925 2492 2527 2886 2494 2495 
2496 2535 2497 2537 2498 2499 2500 2504 2539 
2937 2541 2941 2502 2902 2508 2543 2549 2909 
2512 2547 2906 2949 2553 2513 2515 2516 2555 
2551 2518 2519 2520 2918 2917 2528 2524 2922 
2563 2531 2532 2530 2571 2533 2536 2534 2540 
2544 2577 2585 2542 2942 2548 2583 2589 2546 
2587 2552 2591 2989 2946 2593 2550 2554 2556 
2595 2557 2558 2559 2560 2958 2599 2605 2961 
2562 2568 2567 2569 2566 2570 2572 2969 2966 
2613 2575 2574 2576 2615 3013 2581 2579 2578 
2580 2584 2619 3021 2582 2623 2588 2586 2592 
2627 2633 2596 2994 2631 2635 3033 2561 2564 
2600 2639 2998 2603 2608 2643 3002 3045 2606 
2607 2611 2609 2612 2647 3006 2610 3010 2614 
2616 3014 3053 2651 2655 2620 2624 2625 2622 
2621 2628 2663 3022 2669 2632 2667 2634 2636 
3034 2677 3037 2604 2640 2645 2642 2648 3042 
2649 2646 2652 3089 3046 2687 3049 2650 2653 
3050 2656 2691 2658 2697 2659 2660 2661 2701 
2664 2665 2662 2668 2666 2670 2672 2707 2674 
2671 2675 2676 3074 2644 2679 2680 3078 2685 
2721 2683 2688 3082 2684 2723 2686 2689 2692 
3086 2694 2693 2695 2696 2735 2699 2698 2700 
2737 2739 2703 3105 3101 2704 2741 2702 2708 
2743 2710 3109 2712 3149 3110 2711 2715 2716 
2718 2719 2720 2722 2765 2725 2728 2763 2726 
2729 2727 2732 2731 2767 2733 2734 2736 2771 
2775 3134 3173 2777 2738 2740 2779 3177 2744 
2748 2783 3142 3141 3181 2747 2752 3146 3150 
3189 2751 2755 2756 3153 2795 3154 3193 2758 
2724 2759 2760 3157 2762 2403 2768 3162 2764 
2769 2766 2407 2809 2409 2772 3166 2411 2415 
2774 2770 2776 2817 2419 2780 3178 3185 2784 
2788 3182 2787 3186 2792 3190 2791 2790 2796 
3194 2799 2800 3161 3198 2808 3205 2804 2843 
3241 3245 2812 3206 2847 3249 2851 2816 3210 
2820 2819 3217 2821 3261 2822 2824 2828 2823 
3225 2832 3229 2827 2831 3226 3230 2833 2836 
2875 3273 3233 2838 2840 2879 3238 3277 2848 
2841 2844 2883 3242 3285 3281 2852 2887 3246 
2854 2856 2855 2901 2860 2859 3258 2864 2899 
3301 2865 2863 2868 2903 3262 2867 3269 2871 
3266 2872 3309 2870 2876 2913 2915 2911 3274 
3270 3313 2880 2919 3278 3317 2888 2884 2923 
3282 3321 2891 2892 2890 2893 2894 2895 2896 
2898 2897 3297 2900 2904 2939 3298 3302 2908 
2943 3305 2907 2912 2947 3306 3310 3349 2914 
2910 2916 3314 2955 3353 2957 2920 3318 2959 
3357 2928 2924 2929 2927 2926 2930 2932 2967 
2931 2933 2934 2936 2935 2975 2973 3334 2977 
2938 2940 2944 2981 2945 3345 2948 3342 2983 
3385 2950 2952 3346 3389 2953 2993 2951 2954 
2956 2995 2991 3350 3393 2960 2999 3358 3397 
2965 2963 2962 2968 3003 3362 2972 3366 2971 
2970 2974 2976 3015 3413 2979 2978 2980 3019 
3378 2982 2985 2984 2988 3425 3382 3029 2987 
2986 2992 3027 3429 2990 2996 3031 3035 3390 
3394 3433 2964 2997 3000 3039 3005 3008 3402 
3445 3009 3409 3007 3012 3047 3410 3011 3406 
3016 3414 3051 3018 3017 3020 3059 3065 3025 
3061 3024 3023 3028 3465 3063 3026 3426 3032 
3067 3469 3071 3030 3036 3430 3001 3038 3004 
3040 3079 3085 3043 3048 3083 3052 3087 3054 
3093 3055 3056 3057 3058 3097 3060 3457 3099 
3062 3064 3068 3103 3505 3066 3069 3072 3107 
3111 3073 3113 3075 3070 3076 3115 3513 3077 
3041 3117 3044 3080 3478 3081 3088 3084 3123 
3129 3092 3486 3091 3529 3090 3133 3094 3095 
3096 3131 3135 3098 3137 3100 3541 3139 3497 
3537 3102 3104 3108 3106 3147 3112 3114 3116 
3155 3514 3121 3118 3119 3120 3517 3518 3125 
3165 3122 3128 3522 3127 3126 3132 3526 3167 
3530 3130 3136 3534 3573 3175 3138 3140 3179 
3145 3143 3545 3144 3148 3542 3183 3152 3151 
3550 3553 3156 3159 3158 3124 3160 3558 3557 
3199 3597 3561 2803 3163 3168 3562 3169 2807 
3209 3172 3170 3174 2811 2815 3171 3570 2813 
3176 3574 3213 3221 3180 3184 3581 3582 3188 
3187 3589 3586 3192 3191 2835 3195 3196 3593 
3590 3594 3164 3197 2839 3200 3237 3598 3202 
3208 3602 3204 3641 3645 3243 3601 3212 3247 
3606 3214 3216 3614 3255 3218 3220 3224 3259 
3661 3617 3222 3223 3228 3263 3625 3622 3232 
3626 3231 3227 3234 3236 3235 3275 3630 3673 
3240 3239 3638 3677 3637 3248 3283 3244 3642 
3681 3250 3251 3252 3650 3254 3253 3256 3653 
3654 3257 3260 3264 3658 3299 3697 3657 3265 
3662 3268 3705 3303 3665 3669 3267 3272 3271 
3311 3276 3315 3713 3670 3279 3280 3319 3678 
3717 3288 3284 3329 3289 3286 3287 3292 3291 
3290 3295 3293 3294 3296 3693 3694 3733 3341 
3300 3304 3701 3337 3339 3698 3308 3343 3702 
3745 3307 3312 3749 3347 3709 3706 3351 3316 
3355 3714 3710 3753 3320 3359 3718 3757 3325 
3323 3322 3328 3765 3326 3327 3332 3331 3330 
3730 3373 3333 3335 3336 3371 3375 3338 3340 
3737 3344 3379 3738 3348 3383 3785 3781 3742 
3352 3387 3746 3789 3354 3356 3391 3395 3750 
3754 3793 3324 3360 3365 3363 3368 3805 3369 
3367 3372 3766 3374 3370 3376 3415 3774 3813 
3377 3380 3421 3419 3381 3384 3388 3423 3782 
3825 3386 3392 3786 3427 3829 3790 3396 3431 
3364 3361 3398 3401 3399 3400 3403 3405 3408 
3845 3407 3412 3806 3447 3810 3453 3411 3451 
3416 3455 3417 3418 3420 3424 3459 3861 3461 
3422 3428 3865 3463 3822 3432 3826 3467 3434 
3435 3436 3475 3441 3438 3439 3404 3437 3440 
3442 3485 3443 3448 3841 3444 3446 3449 3452 
3489 3487 3454 3450 3456 3495 3491 3458 3460 
3462 3464 3468 3503 3509 3471 3470 3466 3472 
3511 3870 3474 3473 3476 3515 3477 3479 3480 
3525 3481 3482 3521 3483 3488 3523 3484 3492 
3531 3493 3494 3490 3496 3533 3933 3499 3498 
3500 3898 3539 3937 3501 3502 3504 3508 3506 
3510 3549 3507 3512 3551 3516 3914 3519 3520 
3559 3925 3528 3965 3524 3569 3527 3532 3926 
3929 3567 3535 3536 3571 3934 3575 3973 3538 
3540 3577 3579 3585 3543 3544 3548 3583 3985 
3546 3547 3552 3949 3587 3946 3555 3554 3556 
3954 3953 3921 3560 3958 3599 3997 3201 3203 
3565 3563 3568 3564 3605 3566 3609 3207 3572 
3970 3211 3613 3215 3576 3578 3219 3580 3978 
3584 3588 3591 3592 3989 3986 3990 3595 3596 
3633 3994 3600 3998 41 2 3608 3603 3604 
3643 3610 3612 3611 13 14 3616 18 3621 
3618 3620 3624 61 22 3628 3663 3623 30 
3632 29 3627 34 33 3631 3634 3636 3675 
38 77 3640 3679 3639 3648 3644 3649 3647 
3646 3652 3651 53 54 3655 3656 57 58 
3659 3660 3664 101 65 62 3668 105 69 
66 70 109 3667 3666 3672 3707 73 113 
74 3671 3674 3676 3715 78 117 3680 3719 
82 3685 3682 3683 3688 3687 89 3689 3686 
3692 3690 93 94 3691 3695 3696 98 3699 
3700 3704 102 3703 3708 3741 3743 106 149 
3712 110 114 153 3711 3716 3751 3755 3684 
3720 122 3725 3723 3722 3728 3726 3729 126 
3727 3732 3731 3771 3734 3735 3736 3775 137 
3739 138 3740 3779 177 3777 145 185 141 
181 3744 142 3748 3783 146 189 3747 3752 
3787 150 3756 3791 3758 3759 3721 3724 3760 
201 3763 3762 3768 3764 3769 3767 3770 3772 
3807 3809 3773 3776 3778 3817 3780 3819 3821 
182 3784 3788 221 225 3823 186 3792 3827 
3794 3795 3796 3797 3761 3799 3798 3800 3802 
3803 3808 3843 209 3812 210 3814 3815 3811 
3816 3855 253 3818 3857 3820 3859 3824 222 
3828 261 3863 3830 3831 3832 230 234 3833 
3834 3873 3835 3836 3801 3837 3838 3839 3804 
3840 3842 3848 3844 3883 3881 3889 3849 3846 
3847 3852 3887 3854 3853 3850 3851 3893 3856 
3895 3891 3897 3858 3860 3899 3901 3864 3862 
3868 3869 3867 3871 3866 3872 3907 3874 3875 
3876 3877 3878 3917 3879 3880 3885 3882 3888 
325 3923 329 3886 286 3892 3927 3931 290 
3890 3894 3896 3935 333 3900 3904 3902 3905 
3945 3903 3908 3906 3909 3912 3910 3911 314 
3913 3915 3916 3919 3884 3918 317 3920 3959 
322 3922 3928 3924 3963 326 369 3969 3932 
3930 3967 330 373 3936 3971 3938 341 3939 
3940 3944 3981 3942 3941 3943 3948 3983 3951 
3947 3952 350 3950 3955 3956 3993 3957 358 
3960 3999 1 3962 5 362 3968 3966 3607 
3972 3975 370 3615 3976 3974 3619 17 3977 
3979 3980 3984 3982 3988 389 390 3987 3629 
3992 394 3635 393 3991 3995 3996 398 37 
361 3964 3961 4000 
type 1 4000 int
1 1 1 1 1 1 1 1 1 
1 1 1 1 1 1 1 1 1 
1 1 1 1 1 1 1 1 1 
1 1 1 1 1 1 1 1 1 
1 1 1 1 1 1 1 1 1 
1 1 1 1 1 1 1 1 1 
1 1 1 1 1 1 1 1 1 
1 1 1 1 1 1 1 1 1 
1 1 1 1 1 1 1 1 1 
1 1 1 1 1 1 1 1 1 
1 1 1 1 1 1 1 1 1 
1 1 1 1 1 1 1 1 1 
1 1 1 1 1 1 1 1 1 
1 1 1 1 1 1 1 1 1 
1 1 1 1 1 1 1 1 1 
1 1 1 1 1 1 1 1 1 
1 1 1 1 1 1 1 1 1 
1 1 1 1 1 1 1 1 1 
1 1 1 1 1 1 1 1 1 
1 1 1 1 1 1 1 1 1 
1 1 1 1 1 1 1 1 1 
1 1 1 1 1 1 1 1 1 
1 1 1 1 1 1 1 1 1 
1 1 1 1 1 1 1 1 1 
1 1 1 1 1 1 1 1 1 
1 1 1 1 1 1 1 1 1 
1 1 1 1 1 1 1 1 1 
1 1 1 1 1 1 1 1 1 
1 1 1 1 1 1 1 1 1 
1 1 1 1 1 1 1 1 1 
1 1 1 1 1 1 1 1 1 