# vtk DataFile Version 4.0
Generated by LAMMPS
ASCII
DATASET POLYDATA
POINTS 4000 float
0.942472 1.75299 1.72601 4.79337 1.72173 1.57279 2.78722 3.72651 1.79675 
2.85117 1.68413 3.71085 4.78174 3.66157 3.70335 0.714521 3.60929 3.83186 
0.774493 3.64869 -0.20113 2.79295 1.86346 -0.285518 8.75205 1.79164 1.74952 
6.79056 3.83366 1.66122 6.79244 1.74351 3.79453 8.74765 3.72412 3.58706 
8.59492 -0.387982 3.59921 12.4372 1.45396 1.58557 10.6131 3.70821 1.5875 
10.6449 1.38072 3.6214 12.2567 3.74867 3.50075 10.3639 1.64088 -0.436422 
12.4282 3.6283 -0.517621 16.2853 1.67458 1.48885 14.4559 3.66156 1.36805 
14.3907 1.58335 3.66161 16.2722 3.85497 3.73965 16.4144 -0.402382 3.66579 
14.637 -0.473277 1.5879 16.3259 -0.355714 -0.600601 14.3163 1.696 -0.599088 
20.1378 1.62592 1.50887 18.1471 3.77031 1.60057 22.1455 3.82762 1.64003 
18.3008 1.82935 3.52073 21.9551 1.65339 3.41795 20.2235 3.78929 3.68012 
20.2762 -0.517455 3.64119 18.2392 -0.274928 1.56854 22.2035 -0.445713 1.50826 
22.1225 1.46872 -0.456879 18.2816 1.54335 -0.59228 24.0542 1.75463 1.65908 
26.1435 3.8272 1.52853 26.0453 1.61974 3.54078 24.1378 3.69174 3.66002 
24.006 -0.401501 3.56823 25.9554 1.74984 -0.425867 27.9881 1.69268 1.58029 
29.9613 3.59238 1.72259 29.9677 1.622 3.78856 27.8909 3.75687 3.60823 
29.7437 -0.168149 1.53617 29.9382 1.66202 -0.486481 27.9254 -0.437385 -0.457142 
31.9325 1.60054 1.54959 33.7056 3.56063 1.8799 33.8899 1.61236 3.87772 
31.8407 3.51258 3.77201 31.9525 3.5938 -0.275792 33.8954 -0.489039 1.67349 
31.8361 -0.548784 -0.421007 39.5337 -0.39662 3.7763 35.8319 1.53075 1.74336 
37.6663 3.69664 1.70582 37.7 1.66052 3.71194 35.7924 3.59341 3.74749 
36.0052 -0.459522 3.78344 37.6746 1.67064 -0.194889 4.89797 5.71827 1.75232 
2.89084 7.86866 1.69717 2.83373 5.76122 3.79671 4.74039 7.79867 3.84774 
4.74531 7.83413 -0.442792 2.63779 5.80932 -0.346183 0.881095 5.76809 1.78015 
8.74095 5.86402 1.67793 6.63931 7.69276 1.79784 6.91382 5.75309 3.72891 
8.68004 7.85698 3.74644 6.85481 5.90545 -0.549522 8.61079 7.86738 -0.358198 
12.418 5.7556 1.60609 10.6766 7.96601 1.52633 10.5299 5.86243 3.9078 
12.5564 7.89775 3.59352 12.4042 7.91746 -0.644435 10.5725 5.71696 -0.590939 
16.2286 5.78942 1.64695 14.391 7.71282 1.578 14.3975 5.80069 3.68531 
16.5403 7.74813 3.68145 14.3747 5.71755 -0.549763 16.3992 7.80323 -0.434775 
20.2693 5.76804 1.54952 18.3888 7.83605 1.51594 22.2572 7.88834 1.81453 
18.405 5.78708 3.63716 22.2662 5.76229 3.71192 20.3489 7.88276 3.69497 
22.2193 5.75273 -0.474413 23.9716 5.80751 1.63471 26.2854 7.9771 1.63489 
26.1708 5.91207 3.60397 24.2752 7.85457 3.64751 24.0491 7.8528 -0.29992 
28.1547 5.75786 1.68886 30.0476 7.93731 1.77268 30.0641 5.84789 3.81371 
28.1556 7.73182 3.87775 30.1396 5.65774 -0.375503 32.0132 5.8465 1.83725 
33.7667 7.95943 1.78886 33.826 5.8303 3.75729 31.947 7.98105 3.91976 
39.4246 7.86461 3.7196 35.6439 5.76287 1.71884 37.7458 7.82152 1.70269 
37.581 5.67199 3.82087 35.78 7.92867 3.89534 37.626 5.84807 -0.27105 
4.65759 9.83543 1.68269 2.6228 12.0711 1.72683 2.81577 9.87456 3.88629 
4.5132 11.9792 3.70091 0.880202 9.88125 1.67892 4.6786 11.9284 -0.426894 
0.900757 11.8278 3.94375 0.767558 11.9488 -0.440643 8.66104 10 1.60167 
6.53609 11.9915 1.63463 6.60447 9.92799 3.69759 8.67631 12.0211 4.07568 
8.35927 11.9505 -0.526327 12.4338 9.90712 1.4569 10.4854 12.0208 1.72366 
10.5289 9.82983 3.73426 12.3607 11.9248 3.75755 10.47 10.0363 -0.534949 
16.2953 9.87941 1.73338 14.3007 12.127 1.68525 16.2375 11.8727 -0.328593 
14.3189 9.84397 3.36865 16.2365 11.937 3.7251 14.3041 9.83725 -0.449816 
20.2761 9.95785 1.60314 18.335 11.7679 1.57889 22.2027 11.974 1.56787 
18.3211 9.87338 3.4977 22.3187 9.86988 3.79034 20.2232 12.0584 3.66277 
24.2335 10.0677 1.47028 25.8505 12.1366 1.54448 26.2113 9.93382 3.66935 
24.0667 11.9532 3.88788 29.9682 9.87619 -0.482682 28.0381 10.1396 1.64465 
29.948 11.9496 1.59381 29.7829 9.86308 3.8116 28.1245 12.0003 3.91288 
27.92 12.007 -0.397028 31.9748 9.99718 1.86241 33.9279 11.9563 1.83657 
33.8167 10.0313 3.8097 31.7461 11.9354 3.86006 35.8524 10.0098 1.86004 
37.7272 11.8048 1.76029 37.6489 9.87854 3.83135 35.9488 12.0489 3.87678 
4.50612 13.9396 1.55627 2.89731 16.1548 1.54274 2.81499 14.162 3.76558 
4.63527 16.2469 3.59305 4.69403 15.8929 -0.517478 0.857738 14.1953 1.86713 
8.41685 13.987 1.66943 6.61141 16.0412 1.6223 6.70291 13.8213 3.7541 
8.50323 15.9715 3.70719 6.5636 14.0101 -0.41102 8.44897 16.1735 -0.523848 
8.54722 18.1727 1.65718 12.5232 14.15 1.66007 10.396 16.1348 1.66656 
12.4431 16.3715 -0.429048 10.5435 14.0255 3.66182 12.2882 16.19 3.62257 
16.3872 13.8801 1.52029 14.4209 15.8907 1.6521 14.3894 13.9908 3.82258 
16.3284 15.915 3.52618 20.2098 14.0019 1.62969 18.2271 16.2209 1.6919 
22.1735 16.2051 1.71627 18.1793 13.8282 3.70667 22.0228 14.0217 3.77738 
20.0827 16.1329 3.71583 20.415 16.0773 -0.404733 24.0042 14.2331 1.6744 
26.1153 16.2211 1.6971 26.0833 14.0031 3.62251 24.234 16.2079 3.78887 
24.1421 16.1062 -0.580994 27.9128 13.9657 1.76719 28.1165 15.9956 -0.473578 
29.8579 16.1335 1.49578 29.9071 14.0521 3.85941 28.038 16.2273 3.59696 
29.8844 14.0997 -0.398154 31.8642 13.9582 1.72987 33.6843 15.9295 1.6049 
33.8598 13.9693 3.69872 31.8243 16.3382 3.65968 33.7566 13.9047 -0.409389 
31.8968 16.0405 -0.23598 39.7119 16.2505 3.81754 35.8205 14.0943 1.65197 
37.6526 16.1577 1.68481 37.6451 14.208 3.72881 35.7419 16.2668 3.72062 
4.70164 18.2232 1.60062 2.77098 20.2182 1.65581 4.70151 22.1585 1.5806 
2.62454 18.1609 3.77063 0.877304 20.3336 3.6869 2.83618 22.3677 3.77326 
4.71413 20.1176 3.59366 0.88387 18.1263 1.58824 2.5229 22.3665 -0.337126 
0.849588 22.2769 1.75644 6.61017 20.2336 1.54555 8.55343 22.3366 1.55336 
6.66965 18.2423 3.81351 6.72888 22.3274 3.65951 8.56776 20.3257 3.59436 
6.60746 18.1036 -0.336875 8.41259 20.3045 -0.542705 12.4956 18.0589 1.50273 
10.5183 20.3058 1.64026 12.503 22.3809 1.73074 10.6398 18.1893 3.45807 
10.4818 22.2749 3.53848 12.7133 20.2284 3.70152 10.4368 22.1931 -0.484409 
16.3616 18.2277 1.44774 14.5932 20.2266 1.59483 16.458 22.243 1.72617 
14.4776 18.2167 3.66235 14.5395 22.4287 3.90298 16.4362 20.1239 3.59661 
14.3257 18.2777 -0.595927 14.5006 22.2343 -0.403826 20.154 18.022 1.5955 
18.3848 20.133 1.54688 22.421 19.9678 1.89178 20.5025 22.1445 1.61397 
18.1459 18.0671 3.76684 22.2542 18.0003 3.7218 18.4237 22.1823 3.63948 
20.1606 19.9096 3.72056 22.1881 22.2994 3.8209 18.504 22.2474 -0.395305 
20.5482 20.1875 -0.361691 24.2532 18.1932 1.61158 26.0707 20.3006 1.59815 
24.0837 22.2381 1.88344 26.1051 18.2104 3.64329 24.2266 20.2334 3.74271 
26.1112 22.3326 3.68368 24.1743 20.2829 -0.454277 28.1411 18.2063 1.48113 
29.9796 22.4079 -0.408754 30.0871 20.4923 1.57462 27.8544 22.4741 1.6951 
30.0719 18.2714 3.86935 28.0846 20.2642 3.4926 29.9535 22.3594 3.62825 
28.0451 20.3257 -0.429073 30.0026 18.2426 -0.436432 31.869 18.2584 1.58122 
33.7829 20.2465 1.38809 31.9453 22.4262 1.55226 33.8339 18.2545 3.86797 
31.9043 20.3645 3.64603 33.7068 22.3987 3.66637 33.9033 22.3713 -0.449749 
33.9207 18.1628 -0.34379 31.9469 20.1993 -0.548361 35.6166 18.2811 1.82292 
37.848 22.4323 -0.386211 37.9263 20.1197 1.74392 35.8112 22.2136 1.77 
37.7392 18.2006 3.76159 35.7214 20.2417 3.71773 37.5347 22.189 3.56917 
35.9086 20.2503 -0.290334 2.90143 24.3265 1.70675 4.78653 26.337 1.57243 
3.06909 26.4281 3.74936 4.86113 24.3366 3.73583 4.69495 24.4741 -0.488411 
2.75719 26.5131 -0.658697 6.66882 24.5261 1.6214 8.72592 26.3831 1.59003 
6.70168 26.4567 3.73619 8.78599 24.3884 3.73098 6.67264 26.4641 -0.588599 
8.71459 24.501 -0.393881 10.691 26.4161 -0.333165 10.6673 24.4463 1.61944 
12.6167 26.573 1.7039 10.7098 26.3149 3.71986 12.4823 24.347 3.67455 
12.7266 24.2886 -0.431883 14.619 24.3262 1.66027 16.3578 26.6006 1.52101 
14.559 26.3867 3.63365 16.4785 24.2478 3.84902 14.326 26.6069 -0.457425 
18.4781 24.2315 1.58232 22.2614 24.3121 1.69674 20.3315 26.3883 1.57687 
18.2973 26.4234 3.52792 20.3568 24.2972 3.605 22.0837 26.4815 3.68644 
25.9336 24.5113 1.59401 24.3526 26.5155 1.65355 24.076 24.3478 3.77953 
26.0645 26.5671 3.74289 26.0447 26.468 -0.43616 29.8694 24.3592 1.59851 
27.9278 26.4932 1.62351 28.01 24.4198 3.79631 29.8483 26.44 3.7873 
29.6971 26.4333 -0.435509 27.8461 24.2342 -0.476184 33.9283 24.4617 1.6778 
31.7141 26.4297 1.58898 31.9266 24.4104 3.65743 33.8305 26.7386 3.75408 
31.7882 24.4326 -0.589486 33.7725 26.4814 -0.373097 39.6477 26.3344 1.78866 
39.5885 24.3613 3.83198 37.6145 24.4496 1.65312 35.6733 26.5649 1.43278 
35.7829 24.4132 3.68347 37.7616 26.4919 3.63649 35.862 24.5245 -0.527523 
37.8222 26.6341 -0.301227 2.86007 28.2746 1.50226 4.76394 30.4015 1.46697 
2.93397 30.558 3.78669 4.78268 28.3553 3.59232 4.8078 28.4514 -0.565025 
6.71088 28.3047 1.64947 8.63317 30.6336 1.60025 6.62088 30.4066 3.53276 
8.80652 28.5292 3.49154 8.82411 28.4809 -0.51405 6.75279 30.4248 -0.424068 
10.7547 28.5879 1.52021 12.6083 30.7696 1.55173 10.6545 30.7159 3.82232 
12.511 28.4989 3.80336 14.5443 28.7167 1.57283 16.4359 30.7463 1.72839 
14.251 30.523 3.83106 16.4631 28.5362 3.69476 14.326 30.5881 -0.550643 
18.3839 28.561 1.47011 22.238 28.3957 1.4979 20.2664 30.517 1.81414 
18.2797 30.5943 3.7598 20.2521 28.4668 3.7315 22.2147 30.5232 3.68658 
22.2548 30.5616 -0.419978 18.365 30.6599 -0.496743 26.0372 28.5365 1.70703 
24.183 30.5698 1.61993 24.0061 28.4699 3.73434 26.0724 30.5101 3.66756 
26.0913 30.5928 -0.501292 24.1149 28.6028 -0.600108 29.92 28.6012 1.7193 
28.1259 30.6873 1.70479 28.0284 28.4804 3.7219 30.0646 30.626 3.76279 
29.9971 30.4427 -0.343294 31.7806 28.3565 -0.505053 33.9368 28.4987 1.67636 
31.9469 30.808 1.73896 31.9173 28.5289 3.70063 33.8415 30.5299 3.73539 
33.7912 30.6746 -0.310248 39.9153 30.3951 1.49817 39.7148 28.5945 3.7483 
37.7814 28.6143 1.57559 35.8049 30.6338 1.88573 35.99 28.5398 3.73476 
37.8704 30.6943 3.72707 37.8515 30.7199 -0.320886 35.8582 28.6618 -0.406775 
2.98157 32.7036 1.62469 4.60842 34.7967 1.75752 2.77907 34.6286 3.66463 
[...]
POINT_DATA 4000
FIELD FieldData 6
id 1 4000 int
4 8 43 402 445 441 41 2 12 
47 406 449 409 16 51 410 453 10 
53 20 55 414 457 417 15 17 14 
24 59 63 418 422 461 421 19 23 
22 18 28 67 426 465 425 26 32 
71 430 469 31 30 29 36 75 434 
473 73 35 33 401 40 79 438 477 
437 38 48 83 442 485 85 42 44 
52 87 446 489 46 89 56 91 450 
493 93 50 60 95 454 497 54 97 
64 99 103 458 462 501 62 68 107 
466 505 105 72 111 470 509 70 76 
115 474 513 481 80 119 478 517 78 
88 123 482 525 84 125 521 121 92 
127 486 529 129 96 131 490 533 90 
100 135 137 494 537 94 104 139 143 
498 502 541 108 147 506 545 110 112 
151 510 549 149 116 155 514 553 120 
159 518 557 128 163 522 565 165 124 
132 167 526 569 126 169 172 136 171 
173 530 573 140 175 534 577 144 179 
183 538 542 581 181 148 187 546 585 
185 152 189 191 550 589 150 156 195 
554 593 154 193 561 160 199 558 597 
168 203 208 562 601 602 605 164 202 
204 207 212 566 606 609 166 209 176 
211 216 570 610 613 210 180 215 220 
574 614 617 174 214 184 219 223 224 
578 582 618 621 622 218 221 188 227 
228 586 625 626 225 192 230 231 232 
590 629 630 229 190 196 235 236 594 
633 634 234 194 233 200 238 239 240 
598 637 638 237 243 248 642 645 245 
242 247 252 646 649 246 249 250 251 
256 650 653 253 255 260 654 657 254 
259 263 264 658 661 662 267 268 665 
666 266 271 272 669 670 270 269 275 
276 673 674 273 274 244 641 279 280 
677 678 277 278 283 288 682 685 285 
287 292 686 689 289 286 291 296 690 
693 295 300 694 697 294 299 303 304 
698 701 702 302 298 307 308 705 706 
306 305 311 312 709 710 310 313 315 
316 713 714 314 284 681 319 320 717 
718 318 317 323 328 722 725 324 322 
327 332 726 729 326 331 336 730 733 
333 335 340 734 737 334 337 339 343 
344 738 741 742 347 348 745 746 345 
351 352 749 750 350 355 356 753 754 
721 359 360 757 758 357 321 3 5 
405 363 368 762 765 365 364 362 7 
367 372 766 769 366 11 413 371 376 
770 773 375 380 774 777 377 374 379 
383 384 778 781 782 382 21 27 387 
388 785 786 429 391 392 789 790 389 
433 395 396 793 794 393 394 361 761 
39 399 400 797 798 404 408 443 802 
845 841 412 447 806 849 407 411 416 
451 810 813 853 420 455 814 857 424 
459 463 818 821 822 861 423 428 467 
825 826 865 427 432 471 830 869 436 
475 834 873 440 479 838 877 837 439 
448 483 842 885 881 452 487 846 889 
456 491 850 893 460 495 854 897 464 
499 503 858 862 901 468 507 866 905 
472 511 870 909 476 515 874 913 444 
480 519 878 917 488 523 882 925 484 
921 492 527 886 929 496 531 890 933 
500 535 894 937 504 539 543 898 902 
941 508 547 906 945 512 551 910 949 
516 555 914 953 520 559 918 957 528 
563 922 965 524 532 567 926 969 536 
571 930 973 540 575 934 977 544 579 
583 938 942 981 548 587 946 985 552 
591 950 989 556 595 954 993 961 560 
599 958 997 568 603 608 962 1005 604 
1001 1002 572 607 612 966 1009 1006 576 
611 616 970 1010 1013 580 615 620 974 
1017 1014 584 619 623 624 978 982 1018 
1021 1022 986 588 627 628 1025 1026 592 
631 632 990 1029 1030 596 635 636 994 
1033 1034 564 600 639 640 998 1037 1038 
643 648 1042 1045 644 647 652 1046 1049 
651 656 1050 1053 655 660 1054 1057 659 
663 664 1058 1061 1062 667 668 1065 1066 
671 672 1069 1070 675 676 1073 1074 1041 
679 680 1077 1078 683 688 1082 1085 1081 
687 692 1086 1089 691 696 1090 1093 695 
700 1094 1097 699 704 1098 1101 1102 703 
707 708 1105 1106 711 712 1109 1110 715 
716 1113 1114 684 719 720 1117 1118 723 
728 1122 1125 724 727 732 1126 1129 731 
736 1130 1133 735 740 1134 1137 739 743 
744 1138 1141 1142 747 748 1145 1146 751 
752 1149 1150 755 756 1153 1154 1121 759 
760 1157 1158 403 801 805 763 768 1162 
1165 1161 809 767 772 1166 1169 771 776 
1170 1173 415 817 775 780 1174 1177 419 
779 783 784 1178 1181 1182 787 788 1185 
1186 829 431 791 792 1189 1190 833 435 
795 796 1193 1194 764 799 800 1197 1198 
808 843 1202 1245 804 812 847 1206 1249 
1209 816 851 1210 1253 820 855 1214 1257 
824 859 863 1218 1222 1261 819 828 867 
1226 1265 827 1225 832 871 1230 1269 1229 
836 875 1234 1273 1241 840 879 1238 1277 
839 1237 844 848 883 1242 1285 1281 852 
887 1246 1289 856 891 1250 1293 860 895 
1254 1297 864 899 903 1258 1262 1301 868 
907 1266 1305 872 911 1270 1309 876 915 
1274 1313 880 919 1278 1317 888 923 1282 
1325 1321 892 927 1286 1329 896 931 1290 
1333 900 935 1294 1337 904 939 1298 1302 
1341 943 908 947 1306 1345 912 951 1310 
1349 916 955 1314 1353 884 920 959 1318 
1357 928 963 1322 1365 924 932 967 1326 
1369 936 971 1330 1373 1370 940 975 1334 
1377 1338 944 979 983 1342 1381 948 987 
1346 1385 952 991 1350 1389 956 995 1354 
1393 996 1361 960 999 1358 1397 968 1003 
1008 1362 1402 1405 1004 972 1007 1012 1366 
1409 1406 976 1011 1016 1410 1413 980 1015 
1020 1374 1414 1417 984 1019 1023 1024 1378 
1382 1418 1421 1422 988 1027 1028 1386 1425 
1426 992 1031 1032 1390 1429 1430 1035 1036 
1394 1433 1434 1401 964 1000 1039 1040 1398 
1437 1438 1043 1048 1442 1445 1044 1441 1047 
1052 1446 1449 1051 1056 1450 1453 1055 1060 
1454 1457 1059 1063 1064 1458 1461 1462 1067 
1068 1465 1466 1071 1072 1469 1470 1075 1076 
1473 1474 1079 1080 1477 1478 1083 1088 1482 
1485 1084 1087 1092 1486 1489 1091 1096 1490 
1493 1095 1100 1494 1497 1099 1103 1104 1498 
1501 1502 1107 1108 1505 1506 1111 1112 1509 
1510 1115 1116 1513 1514 1481 1119 1120 1517 
1518 1123 1124 1128 1522 1525 1127 1132 1526 
1529 1131 1136 1530 1533 1135 1140 1534 1537 
1139 1143 1144 1538 1541 1542 1147 1148 1545 
1546 1151 1152 1549 1550 1155 1156 1553 1554 
1521 1159 1160 1557 1558 803 1201 1205 1163 
1168 1562 1565 1164 1561 807 1167 1172 1566 
1569 1213 811 1171 1176 1570 1573 815 1217 
1175 1180 1574 1577 1221 823 1179 1183 1184 
1578 1581 1582 1187 1188 1585 1586 831 1191 
1192 1589 1590 835 1233 1195 1196 1593 1594 
1199 1200 1597 1598 1208 1243 1602 1645 1204 
1601 1212 1247 1606 1649 1609 1207 1216 1251 
1610 1653 1220 1255 1614 1657 1617 1224 1259 
1263 1618 1622 1661 1621 1219 1228 1267 1626 
1665 1227 1232 1271 1630 1669 1629 1236 1275 
1634 1673 1235 1633 1641 1240 1279 1638 1677 
1239 1637 1244 1248 1283 1642 1685 1681 1252 
1287 1646 1689 1256 1291 1650 1693 1260 1295 
1654 1697 1299 1264 1303 1658 1662 1701 1268 
1307 1666 1705 1272 1311 1670 1709 1276 1315 
1674 1713 1280 1319 1678 1717 1288 1323 1682 
1725 1284 1292 1327 1686 1729 1296 1331 1690 
1733 1731 1300 1335 1694 1737 1304 1339 1343 
1698 1702 1741 1308 1347 1706 1745 1312 1351 
1710 1749 1316 1355 1714 1753 1721 1320 1359 
1718 1757 1328 1363 1722 1765 1332 1367 1726 
1769 1336 1371 1730 1773 1340 1375 1734 1777 
1738 1344 1379 1383 1742 1781 1348 1387 1746 
1785 1352 1391 1750 1789 1356 1395 1754 1793 
1761 1324 1360 1399 1758 1797 1368 1403 1408 
1762 1802 1805 1364 1801 1372 1407 1412 1766 
1806 1809 1376 1411 1416 1770 1810 1813 1380 
1415 1420 1774 1814 1817 1384 1419 1423 1424 
1778 1782 1818 1821 1822 1824 1388 1427 1428 
1786 1825 1826 1392 1431 1432 1790 1829 1830 
1396 1435 1436 1794 1833 1834 1404 1400 1439 
1440 1798 1837 1838 1443 1448 1842 1845 1444 
1447 1452 1846 1849 1451 1456 1850 1853 1455 
1460 1854 1857 1459 1463 1464 1858 1861 1862 
1467 1468 1865 1866 1471 1472 1869 1870 1475 
1476 1873 1874 1841 1479 1480 1877 1878 1483 
1488 1882 1885 1484 1487 1492 1886 1889 1491 
1496 1890 1893 1495 1500 1894 1897 1499 1503 
1504 1898 1901 1902 1507 1508 1905 1906 1511 
1512 1909 1910 1515 1516 1913 1914 1881 1519 
1520 1917 1918 1919 1523 1528 1922 1925 1527 
1532 1926 1929 1531 1536 1930 1933 1535 1540 
1934 1937 1539 1543 1544 1938 1941 1942 1547 
1548 1945 1946 1551 1552 1949 1950 1555 1556 
1953 1954 1921 1524 1559 1560 1957 1958 1203 
1605 1563 1564 1568 1962 1965 1567 1572 1966 
1969 1613 1211 1571 1576 1970 1973 1215 1575 
1580 1974 1977 1223 1579 1584 1978 1981 1982 
1583 1625 1587 1588 1985 1986 1231 1591 1592 
1989 1990 1595 1596 1993 1994 1961 1599 1600 
1997 1998 1608 1643 2002 2004 2008 2043 2045 
2041 1612 1647 2006 2012 2047 2049 1607 2007 
1616 1651 2010 2016 2051 2053 2011 1620 1655 
2014 2020 2055 2057 2019 1624 1659 1663 2018 
2022 2023 2024 2059 2061 2063 2021 1628 1667 
2025 2026 2028 2065 2067 1627 2027 1632 1671 
2030 2032 2069 2071 1631 1636 1675 2034 2036 
2073 2075 2035 1640 1604 1679 2038 2040 2077 
2079 1639 1648 1683 2042 2048 2083 2085 2044 
1644 1652 1687 2046 2052 2087 2089 1656 1691 
2050 2056 2091 2093 1660 1695 2054 2060 2095 
2097 1699 2058 1664 1703 2062 2064 2099 2101 
2103 1668 1707 2066 2068 2105 2107 1672 1711 
2070 2072 2109 2111 1676 1715 2074 2076 2113 
2115 2081 1680 1719 2078 2080 2117 2119 1723 
1688 2082 2084 2088 2123 2125 2121 1692 1727 
2086 2092 2127 2129 1696 2090 2096 2131 2133 
1700 1735 2094 2100 2135 2137 1739 2098 1704 
1743 2102 2104 2139 2141 2143 1708 1747 2106 
2108 2145 2147 1712 1751 2110 2112 2149 2151 
1716 1755 2114 2116 2153 2155 1684 1720 1759 
2118 2120 2157 2159 1728 1763 2122 2128 2163 
2165 2161 2124 1724 1732 1767 2126 2167 2169 
2132 1736 1771 2130 2136 2171 2173 1740 1775 
2134 2140 2175 2177 1783 1744 1779 2138 2142 
2144 2181 2183 2179 1748 1787 2146 2148 2185 
2187 1752 1791 2150 2152 2189 2191 1756 1795 
2154 2156 2193 2195 1760 1799 2158 2160 2197 
2199 1768 1803 1808 2162 2168 2202 2203 2205 
2208 1764 1772 1807 1812 2166 2172 2206 2209 
2212 2207 1776 1811 1816 2170 2176 2210 2211 
2213 2216 1780 1815 1820 2174 2180 2214 2215 
2217 2220 1784 1819 1823 2178 2182 2184 2218 
2219 2221 2223 2222 1788 1827 1828 2186 2188 
2225 2226 2227 2228 1792 1831 1832 2190 2192 
2229 2230 2231 2232 1796 1835 1836 2194 2196 
2233 2234 2235 2236 2201 1804 2204 2164 1800 
1839 1840 2198 2200 2237 2238 2239 2240 1843 
1848 2242 2243 2245 2248 2244 1847 1852 2246 
2247 2249 2252 1851 1856 2250 2251 2253 2256 
1855 1860 2254 2255 2257 2260 2224 1859 1863 
1864 2258 2259 2261 2262 2264 2263 1867 1868 
2265 2266 2267 2268 1871 1872 2269 2270 2271 
2272 1875 1876 2273 2274 2275 2276 2241 1844 
1879 1880 2277 2278 2279 2280 1883 1888 2282 
2283 2285 2288 1884 1887 1892 2286 2287 2289 
2292 1891 1896 2290 2293 2291 2296 1895 1900 
2294 2295 2297 2300 1899 1903 1904 2298 2299 
2301 2302 2304 2303 1907 1908 2305 2306 2308 
2307 1911 1912 2309 2310 2312 2311 1915 1916 
2313 2314 2315 2316 2284 2281 1920 2317 2318 
2319 2320 1923 1928 2322 2323 2325 2328 1924 
2321 1932 1927 2326 2327 2329 2332 1931 1936 
2330 2331 2333 2336 1940 1935 2334 2335 2337 
2340 1939 1943 1944 2338 2339 2341 2342 2343 
2344 1947 1948 2345 2346 2347 2348 1951 1952 
2349 2350 2351 2352 1955 1956 2353 2354 2356 
2355 2324 1959 1960 2357 2358 2359 2360 2005 
1603 2003 1963 1968 2362 2363 2365 2368 2361 
2009 1967 1972 2366 2367 2369 2372 1611 2013 
1971 1976 2370 2371 2373 2376 1615 2017 2015 
1975 1980 2374 2375 2377 2380 1623 1619 1979 
1983 1984 2378 2379 2381 2382 2383 2384 1987 
1988 2385 2386 2387 2388 2031 2029 1991 1992 
2389 2390 2391 2392 2033 1635 1995 1996 2393 
2394 2395 2396 2001 2039 1964 2364 2037 1999 
2000 2397 2398 2399 2400 2402 2408 2443 2445 
2405 2406 2412 2447 2449 2410 2416 2451 2453 
2414 2420 2455 2457 2417 2418 2422 2424 2459 
2461 2463 2421 2426 2428 2465 2467 2427 2430 
2432 2469 2471 2429 2434 2436 2473 2475 2441 
2404 2438 2440 2477 2479 2442 2448 2483 2485 
2444 2481 2446 2452 2487 2489 2450 2456 2491 
2493 2454 2460 2495 2497 2458 2462 2464 2499 
2501 2503 2466 2468 2505 2507 2470 2472 2509 
2511 2474 2476 2513 2515 2478 2480 2517 2519 
2482 2488 2523 2525 2521 2484 2486 2492 2527 
2529 2490 2496 2531 2533 2494 2500 2535 2537 
2498 2502 2504 2539 2541 2543 2506 2508 2545 
2547 2510 2512 2549 2551 2514 2516 2553 2555 
2518 2520 2557 2559 2522 2528 2563 2565 2561 
2524 2526 2532 2567 2569 2530 2536 2571 2573 
2534 2540 2575 2577 2538 2542 2544 2579 2581 
2583 2546 2548 2585 2587 2550 2552 2589 2591 
2554 2556 2593 2595 2558 2560 2597 2599 2562 
2568 2602 2603 2605 2608 2564 2566 2572 2606 
2607 2609 2612 2570 2576 2610 2611 2613 2616 
2574 2580 2614 2615 2617 2620 2578 2582 2584 
2618 2619 2621 2622 2623 2624 2586 2588 2625 
2626 2627 2628 2590 2592 2629 2630 2631 2632 
2594 2596 2633 2634 2635 2636 2601 2604 2598 
2600 2637 2638 2639 2640 2642 2643 2645 2648 
2646 2647 2649 2652 2650 2651 2653 2656 2654 
2655 2657 2660 2658 2659 2661 2662 2663 2664 
2665 2666 2667 2668 2669 2670 2671 2672 2673 
2674 2675 2676 2641 2644 2677 2678 2679 2680 
2682 2683 2685 2688 2686 2687 2689 2692 2690 
2691 2693 2696 2694 2695 2697 2700 2698 2699 
2701 2703 2704 2702 2705 2706 2707 2708 2709 
2710 2711 2712 2713 2714 2715 2716 2684 2681 
2717 2718 2719 2720 2722 2723 2725 2728 2726 
2727 2729 2732 2730 2731 2733 2736 2734 2735 
2737 2740 2738 2739 2741 2742 2743 2744 2745 
2746 2747 2748 2749 2750 2751 2752 2753 2754 
2755 2756 2724 2721 2757 2758 2759 2760 2403 
2401 2762 2763 2765 2768 2761 2764 2409 2407 
2766 2767 2769 2772 2413 2411 2770 2771 2773 
2776 2415 2774 2775 2777 2780 2423 2419 2778 
2779 2781 2782 2783 2784 2425 2785 2786 2787 
2788 2431 2789 2790 2791 2792 2433 2435 2793 
2794 2795 2796 2439 2437 2797 2798 2799 2800 
2802 2808 2841 2843 2845 2806 2812 2847 2849 
2810 2816 2851 2853 2811 2814 2820 2855 2857 
2815 2818 2822 2824 2859 2861 2863 2821 2819 
2825 2826 2828 2865 2867 2830 2832 2869 2871 
2831 2829 2834 2836 2873 2875 2804 2838 2840 
2877 2879 2839 2842 2848 2883 2885 2846 2852 
2887 2889 2850 2856 2891 2893 2854 2860 2895 
2897 2858 2862 2864 2899 2901 2903 2866 2868 
2905 2907 2870 2872 2909 2911 2874 2876 2913 
2915 2844 2881 2878 2880 2917 2919 2882 2888 
2921 2923 2925 2884 2886 2892 2927 2929 2890 
2896 2931 2933 2894 2900 2935 2937 2898 2902 
2904 2939 2941 2943 2906 2908 2945 2947 2910 
2912 2949 2951 2914 2916 2953 2955 2918 2920 
2957 2959 2922 2928 2963 2965 2926 2932 2967 
2969 2930 2936 2971 2973 2934 2940 2975 2977 
2938 2942 2944 2979 2981 2983 2946 2948 2985 
2987 2950 2952 2989 2991 2990 2954 2956 2993 
2995 2924 2961 2958 2960 2997 2999 2962 2968 
3002 3003 3005 3008 3004 2966 2972 3006 3007 
3009 3012 2970 2976 3010 3011 3013 3016 2974 
2980 3015 3017 3020 3014 2978 2982 2984 3018 
3019 3021 3022 3023 3024 2986 2988 3025 3027 
3028 3026 2992 3029 3030 3031 3032 2994 2996 
3033 3034 3035 3036 2964 3001 2998 3000 3037 
3038 3039 3040 3042 3043 3045 3048 3046 3047 
3049 3052 3050 3051 3053 3056 3054 3055 3057 
3060 3058 3059 3061 3062 3063 3064 3065 3066 
3067 3068 3069 3070 3071 3072 3073 3074 3075 
3076 3041 3044 3077 3078 3079 3080 3082 3083 
3085 3088 3084 3086 3087 3089 3092 3090 3091 
3093 3096 3094 3095 3097 3100 3098 3099 3101 
3102 3103 3104 3105 3106 3107 3108 3109 3110 
3111 3112 3113 3114 3115 3116 3081 3117 3118 
3119 3120 3122 3123 3125 3128 3124 3121 3126 
3127 3129 3132 3130 3131 3133 3136 3134 3135 
3137 3140 3138 3139 3141 3142 3143 3144 3145 
3146 3147 3148 3149 3150 3151 3152 3153 3154 
3155 3156 3157 3158 3159 3160 2805 2803 3162 
3163 3165 3168 3164 3161 2807 2809 3166 3167 
3169 3172 2813 3170 3171 3173 3176 2817 3174 
3175 3177 3180 2823 3178 3179 3181 3182 3183 
3184 2827 3185 3186 3187 3188 3189 3190 3191 
3192 2835 2833 3193 3194 3195 3196 2801 2837 
3197 3198 3199 3200 3202 3208 3243 3245 3241 
3203 3201 3206 3212 3247 3249 3207 3210 3216 
3251 3253 3213 3214 3220 3255 3257 3215 3218 
3222 3223 3224 3259 3261 3263 3219 3226 3227 
3228 3265 3267 3230 3232 3269 3271 3229 3234 
3236 3273 3275 3233 3235 3204 3237 3238 3240 
3277 3279 3242 3248 3283 3285 3246 3252 3287 
3289 3250 3256 3291 3293 3254 3260 3295 3297 
3258 3299 3262 3264 3301 3303 3266 3268 3305 
3307 3270 3272 3309 3311 3274 3276 3313 3315 
3281 3244 3278 3280 3317 3319 3282 3288 3323 
3325 3321 3286 3292 3327 3329 3290 3296 3331 
3333 3294 3300 3335 3337 3298 3302 3304 3339 
3341 3343 3306 3308 3345 3347 3310 3312 3349 
3351 3314 3316 3353 3355 3284 3318 3320 3357 
3359 3322 3328 3363 3365 3361 3324 3326 3332 
3367 3369 3330 3336 3371 3373 3334 3340 3375 
3377 3338 3342 3344 3379 3381 3383 3346 3348 
3385 3387 3350 3352 3389 3391 3354 3356 3393 
3395 3358 3360 3397 3399 3362 3368 3402 3403 
3405 3408 3364 3366 3372 3406 3407 3409 3412 
3370 3376 3410 3411 3413 3416 3374 3380 3414 
3415 3417 3420 3378 3382 3384 3418 3419 3421 
3422 3423 3424 3386 3388 3425 3426 3427 3428 
3390 3392 3429 3430 3431 3432 3394 3396 3433 
3434 3435 3436 3401 3404 3398 3400 3437 3438 
3439 3440 3442 3443 3445 3448 3446 3447 3449 
3452 3450 3451 3453 3456 3454 3455 3457 3460 
3458 3459 3461 3462 3463 3464 3465 3466 3467 
3468 3469 3470 3471 3472 3473 3474 3475 3476 
3441 3444 3477 3478 3479 3480 3482 3483 3485 
3488 3486 3487 3489 3492 3490 3491 3493 3496 
3494 3495 3497 3500 3498 3499 3501 3502 3503 
3504 3505 3506 3507 3508 3509 3510 3511 3512 
3513 3514 3515 3516 3481 3484 3517 3518 3519 
3520 3522 3523 3525 3528 3521 3524 3526 3527 
3529 3532 3530 3531 3533 3536 3534 3535 3537 
3540 3538 3539 3541 3542 3543 3544 3545 3546 
3547 3548 3549 3550 3551 3552 3553 3554 3555 
3556 3557 3558 3559 3560 3205 3562 3563 3565 
3568 3561 3564 3209 3566 3567 3569 3572 3211 
3570 3571 3573 3576 3217 3574 3575 3577 3580 
3221 3578 3579 3581 3582 3583 3584 3225 3585 
3586 3587 3588 3231 3589 3590 3591 3592 3593 
3594 3595 3596 3239 3597 3598 3599 3600 45 
3602 3608 3643 3645 3604 3605 3641 6 49 
3606 3612 3647 3649 9 3607 3610 3616 3651 
3653 3611 57 3614 3615 3620 3655 3657 3617 
61 3618 3622 3624 3659 3661 3663 3619 3623 
3621 65 3625 3626 3628 3665 3667 69 3630 
3632 3669 3671 3631 34 3634 3636 3673 3675 
3635 3633 77 3638 3640 3677 3679 3639 81 
3642 3648 3683 3685 3644 3646 3652 3687 3689 
3650 3656 3691 3693 3654 3660 3695 3697 58 
101 3658 3662 3664 3699 3701 3703 66 3666 
3668 3705 3707 109 3670 3672 3709 3711 74 
113 3674 3676 3713 3715 117 3681 3678 3680 
3717 3719 82 3682 3688 3723 3725 3684 3721 
86 3686 3692 3727 3729 133 3690 3696 3731 
3733 3694 3700 3735 3737 3739 141 102 98 
3698 3702 3704 3741 3743 145 106 3706 3708 
3745 3747 3710 3712 3749 3751 114 153 3714 
3716 3753 3755 118 157 3718 3720 3757 3759 
122 3722 3728 3763 3765 3726 3732 3767 3769 
130 3730 3736 3771 3773 177 134 3734 3740 
3775 3777 138 142 3738 3742 3744 3779 3781 
3783 146 3746 3748 3785 3787 3750 3752 3789 
3791 3754 3756 3793 3795 161 197 158 3761 
3724 3758 3760 3797 3799 205 162 3762 3768 
3802 3803 3805 3808 206 3772 3766 3806 3807 
3809 3812 213 170 3770 3776 3810 3811 3813 
3816 217 3774 3780 3815 3817 3820 3814 222 
178 3778 3782 3784 3818 3819 3821 3822 3823 
3824 182 186 226 3786 3788 3825 3826 3827 
3828 3790 3792 3829 3830 3831 3832 3794 3796 
3833 3834 3835 3836 201 198 3804 3764 3801 
3798 3800 3837 3838 3839 3840 3842 3843 3845 
3848 241 3846 3847 3849 3852 3850 3851 3853 
3856 257 3854 3855 3857 3860 262 261 258 
3859 3858 3861 3862 3863 3864 265 3865 3866 
3867 3868 3869 3870 3871 3872 3873 3874 3875 
3876 3844 3841 3877 3878 3879 3880 282 3882 
3883 3885 3888 3886 3887 3889 3892 290 293 
3890 3891 3893 3896 297 3894 3895 3897 3900 
301 3898 3899 3901 3902 3903 3904 3905 3906 
3907 3908 309 3909 3910 3911 3912 3913 3914 
3915 3916 3884 281 3881 3917 3918 3919 3920 
325 3922 3923 3925 3928 3921 329 3926 3927 
3929 3932 330 3930 3931 3933 3936 3934 3935 
3937 3940 342 338 341 3938 3939 3941 3942 
3943 3944 346 3945 3946 3947 3948 349 3949 
3950 3951 3952 354 353 3953 3954 3955 3956 
358 3924 3957 3958 3959 3960 1 3601 3603 
3962 3963 3965 3968 3961 369 3609 3966 3967 
3969 3972 370 13 3613 373 3970 3971 3973 
3976 3974 3975 3977 3980 378 381 3978 3979 
3981 3982 3983 3984 385 386 3627 25 3985 
3986 3987 3988 3629 390 3989 3990 3991 3992 
3993 3994 3995 3996 37 397 398 3964 3637 
3997 3998 3999 4000 
type 1 4000 int
1 1 1 1 1 1 1 1 1 
1 1 1 1 1 1 1 1 1 
1 1 1 1 1 1 1 1 1 
1 1 1 1 1 1 1 1 1 
1 1 1 1 1 1 1 1 1 
1 1 1 1 1 1 1 1 1 
1 1 1 1 1 1 1 1 1 
1 1 1 1 1 1 1 1 1 
1 1 1 1 1 1 1 1 1 
1 1 1 1 1 1 1 1 1 
1 1 1 1 1 1 1 1 1 
1 1 1 1 1 1 1 1 1 
1 1 1 1 1 1 1 1 1 
1 1 1 1 1 1 1 1 1 
1 1 1 1 1 1 1 1 1 
1 1 1 1 1 1 1 1 1 
1 1 1 1 1 1 1 1 1 
1 1 1 1 1 1 1 1 1 
1 1 1 1 1 1 1 1 1 
1 1 1 1 1 1 1 1 1 
1 1 1 1 1 1 1 1 1 
1 1 1 1 1 1 1 1 1 
1 1 1 1 1 1 1 1 1 
1 1 1 1 1 1 1 1 1 
1 1 1 1 1 1 1 1 1 
1 1 1 1 1 1 1 1 1 
1 1 1 1 1 1 1 1 1 
1 1 1 1 1 1 1 1 1 
1 1 1 1 1 1 1 1 1 
1 1 1 1 1 1 1 1 1 
1 1 1 1 1 1 1 1 1 