# vtk DataFile Version 4.0
Generated by LAMMPS
ASCII
DATASET POLYDATA
POINTS 4000 float
1.23806 1.49838 1.40438 4.94843 1.56619 1.56689 3.15999 1.42608 -0.74421 
8.90364 1.33956 1.54812 8.91429 -0.839248 3.64757 8.99167 3.49668 3.59268 
6.97197 1.47931 -0.51961 12.8269 1.37734 1.44931 10.8196 1.63276 3.75571 
12.7436 -0.677414 3.59192 12.6385 3.40776 3.59553 10.7972 1.45028 -0.415902 
16.4304 1.62667 1.43947 16.4732 3.56227 3.67819 16.4436 -0.603099 3.64697 
20.1389 1.38295 1.53982 18.1904 1.5381 3.78602 22.0845 -0.727555 1.3621 
18.34 1.36269 -0.650435 20.2349 -0.69572 -0.489094 18.3782 3.629 1.64728 
23.9416 1.46274 1.49979 24.1313 -0.746817 -0.621431 26.0449 1.49894 3.38675 
24.0526 -0.718835 3.46531 27.8352 1.35703 1.35789 29.7142 1.43202 -0.556679 
27.6854 -0.747886 -0.764422 29.6236 -0.899151 1.49142 31.5382 1.4342 1.51798 
33.4553 3.47722 1.60577 33.3537 1.34138 -0.512583 33.3132 -0.572012 1.46683 
33.4976 1.30094 3.57269 31.526 3.59174 3.61783 35.1668 1.22073 1.49385 
35.3958 -0.823974 -0.477403 37.212 1.25406 3.45993 2.9518 3.5475 1.4623 
5.02956 5.62779 1.56005 1.00033 5.49317 1.49137 1.03976 3.56812 3.59763 
6.90588 3.62493 1.73511 8.74159 5.83164 1.42504 6.81087 5.77758 3.54 
6.67412 7.87758 1.37004 10.8177 3.50759 1.56891 12.6618 5.49293 1.49835 
10.7764 5.74132 3.33698 14.5144 3.61982 1.33875 16.3606 5.79244 1.46081 
14.4473 5.45456 3.57324 14.5451 7.70228 1.33848 16.4067 7.64242 3.49929 
22.151 3.47215 1.5179 20.3838 5.6636 1.51818 18.3464 7.69365 1.49843 
25.855 3.40481 1.40463 23.9891 5.69843 1.43369 25.7386 7.86888 1.56569 
25.7146 5.42833 3.47153 29.7618 3.5142 1.5419 27.7732 5.62055 1.54072 
29.807 7.6669 1.41454 29.8496 5.84465 3.3951 31.8205 5.63557 1.47345 
33.4849 7.76123 1.43174 31.7409 7.73936 3.63307 33.522 5.76998 3.52965 
37.2095 3.54164 1.4438 35.393 5.56373 1.53105 37.3596 7.71846 1.57323 
37.2018 5.6903 -0.627407 3.23284 7.64659 1.42124 4.86711 7.65653 3.54806 
4.95453 9.94335 1.57523 3.04619 9.84266 3.52293 1.26269 11.989 3.65775 
8.81203 7.687 3.55595 8.86709 9.84666 1.43455 10.6141 7.7303 1.4061 
12.6043 7.58872 3.39178 12.7031 9.79624 1.49754 10.7155 9.60411 3.48003 
10.7361 11.9195 1.51555 16.5745 9.70954 1.46445 14.5583 9.72487 3.61868 
16.4061 11.7994 3.53653 22.1224 7.68939 1.60923 20.3344 9.90826 1.46966 
22.0665 12.036 1.46995 20.1673 11.7985 3.67577 22.1387 9.97976 3.54271 
18.4039 9.69229 -0.581938 23.9769 9.79951 1.58391 25.8539 11.7513 1.48742 
24.0714 7.92868 3.6986 25.8749 9.73063 3.64785 23.9419 11.9569 3.48867 
29.7509 9.87162 -0.466834 27.8207 9.91671 1.47703 29.695 11.934 1.50549 
27.7622 11.7855 3.49105 31.6074 9.7379 1.55325 33.6093 11.9032 1.5558 
33.6079 9.85437 3.6069 31.6125 11.9816 3.60406 39.2683 9.78189 1.37387 
35.3711 7.69696 3.64119 35.5374 9.68847 1.56517 37.2934 9.99609 3.56205 
35.6905 11.8752 3.54691 37.491 9.69662 -0.639816 37.5067 11.9783 1.34349 
35.5568 11.8941 -0.511435 4.99688 11.806 3.7551 3.0034 11.871 1.49792 
5.06221 14.0468 1.42772 3.15388 16.0572 1.60643 3.2868 14.0376 3.58266 
5.32096 16.1876 -0.632684 7.02412 11.9307 1.58687 8.87356 14.0172 1.59184 
7.22543 16.0782 1.55753 6.75448 13.8004 3.6995 8.8607 16.1403 -0.785361 
12.6921 13.8073 1.40212 12.6455 15.9376 -0.6331 14.7977 11.8266 1.42412 
16.4953 11.7906 -0.764921 16.508 13.8009 1.47315 14.482 14.0028 -0.565994 
18.4069 11.7965 1.52095 20.1544 14.0629 1.56949 18.0603 16.0098 1.63683 
22.0531 14.1379 3.60198 22.068 16.1335 1.37384 24.0435 14.0868 1.47761 
25.9909 16.1431 1.45762 24.0093 16.002 -0.678541 27.8185 14.0166 1.61944 
29.8089 16.2011 1.3317 29.5988 14.1029 -0.521819 31.7199 13.9629 1.48843 
33.6306 16.1674 1.5644 39.3042 14.0637 1.58072 35.5483 13.95 1.49552 
39.2716 16.1812 -0.560993 37.2417 14.0869 -0.59432 37.3784 16.1281 1.32039 
35.4096 16.2049 -0.609595 5.09259 18.0732 1.24802 3.18237 20.1655 1.3622 
1.07075 16.2816 3.47877 8.98443 18.0645 1.61843 10.784 15.9843 1.34778 
12.5837 16.0198 3.51829 12.6992 18.0626 1.2916 10.9602 18.1311 3.40055 
10.7452 20.3932 1.47438 14.6246 15.9118 1.47011 16.3783 18.0832 1.62298 
14.3798 18.1733 3.64232 16.6106 15.9294 -0.453738 14.52 20.3074 1.33741 
16.2846 16.1511 3.70974 20.2688 18.1126 1.42137 20.1779 15.9882 3.52986 
20.216 16.0399 -0.460187 22.2021 18.0742 -0.888053 24.0252 18.2298 1.42456 
26.0581 20.3384 1.33194 24.1395 20.1057 3.3716 26.0648 18.1599 -0.666432 
27.9168 18.2649 1.4799 29.7445 20.3402 1.31235 27.7967 16.1306 -0.685677 
29.868 18.0297 -0.613249 31.7271 18.2852 1.53962 33.5402 18.2868 -0.481171 
33.5895 20.2003 1.4404 33.4821 18.2108 3.47848 39.348 18.1555 1.40258 
35.5647 18.2442 1.50426 37.3538 18.2448 3.66353 37.489 20.3609 1.41908 
35.4472 20.3363 3.60293 35.4624 20.2522 -0.761593 5.20612 22.257 1.43056 
1.36705 22.2576 1.48493 3.41026 24.223 1.45803 7.08648 20.1762 1.54274 
8.91157 20.1289 3.50975 8.8647 20.3583 -0.532609 8.76345 22.4807 1.55818 
6.91076 24.4882 1.39178 8.94689 24.4681 -0.575414 12.6571 20.3119 3.48643 
12.6395 22.3559 1.344 10.7421 22.4029 3.51077 10.6897 22.4064 -0.670829 
11.0018 24.4604 1.5209 16.3565 22.3338 1.5789 16.5128 20.1093 3.47988 
14.6099 22.3503 3.51179 18.3906 20.1132 1.28907 22.04 20.0458 1.45027 
20.2221 22.2719 1.35768 22.3014 22.341 3.47314 18.3191 24.4733 1.30811 
20.264 20.3162 3.45368 18.4156 22.3526 3.32847 24.2456 22.2576 1.26809 
25.8959 22.2426 3.45133 24.229 20.1907 -0.602708 25.9877 22.3664 -0.65684 
27.9094 20.2419 -0.667977 27.8794 22.4961 1.47062 31.5971 22.3608 1.42092 
33.3849 22.3197 3.61793 33.3742 24.504 1.39111 31.7881 20.343 -0.804901 
31.8282 24.386 -0.657889 35.4462 22.3843 1.54033 37.3267 22.1854 3.53943 
37.3057 24.2364 1.49194 37.5034 22.3236 -0.712263 5.11657 24.3592 -0.715057 
5.05148 26.4431 1.48409 3.11481 26.5116 3.62521 3.23741 26.5053 -0.470591 
1.23655 26.3333 1.52178 8.93749 26.2567 1.58408 7.05022 28.563 1.35362 
6.82922 26.4433 3.57077 7.05192 26.5172 -0.601538 10.7569 26.4633 -0.473061 
12.4806 26.6327 1.57429 10.6778 26.5369 3.5677 10.7704 28.6083 1.48751 
12.6294 28.5313 -0.652273 14.5052 24.5153 1.59063 16.48 26.5058 1.47774 
16.4783 28.5855 3.6219 16.3826 24.3188 -0.627712 22.0138 24.3809 1.56556 
20.2361 26.5405 1.34735 20.2629 24.4061 3.67725 22.2495 26.4864 3.57837 
25.7582 24.576 1.35694 23.8845 26.6745 1.29735 25.8366 26.4388 3.52875 
25.8377 26.6273 -0.769786 24.0068 24.3319 3.57298 29.8616 24.6486 1.47092 
27.8596 24.6635 -0.600995 27.6498 26.5748 1.4835 29.8249 26.6245 -0.671349 
29.4996 28.6631 1.37156 27.8514 24.5425 3.46668 31.6117 26.7225 1.59144 
33.5008 26.6296 -0.491459 35.4837 26.4737 1.51729 37.1185 26.46 3.68957 
37.2833 28.5238 1.54851 39.2922 24.5249 -0.691975 37.323 26.4281 -0.495095 
3.07129 28.7204 1.41334 5.08952 28.5744 -0.582331 5.12299 30.6528 1.28966 
3.35713 32.8458 1.51856 3.16308 30.879 -0.608721 8.85373 28.4224 -0.710413 
8.95063 30.663 1.30103 7.0102 32.7503 1.32097 7.03492 30.6671 3.57517 
12.6212 30.6991 1.44292 10.6816 30.6741 3.45479 10.694 30.6075 -0.679143 
14.6689 28.6033 1.47887 16.4063 30.4707 1.46004 16.4604 28.536 -0.732149 
18.2029 28.5701 1.50085 20.2812 28.5949 3.69785 20.245 28.5601 -0.575061 
22.1713 28.5825 1.44724 20.2075 30.6845 1.47171 18.3824 32.5782 1.29652 
22.1284 30.7082 -0.520821 22.0949 32.5969 1.40691 25.9402 28.5895 1.2411 
24.0451 30.6671 1.33564 25.824 30.675 -0.766185 27.7675 30.6872 1.30086 
29.6071 30.5693 3.48274 29.7864 30.5785 -0.556738 33.5594 28.707 1.44122 
31.5465 30.7565 1.51612 33.5877 30.7402 -0.614673 33.5895 30.716 3.43527 
31.7546 28.7699 -0.493225 39.1027 30.5838 1.52338 35.6418 30.6475 1.34355 
39.3322 28.6329 -0.611054 37.4181 30.8394 -0.542257 35.535 28.652 -0.497023 
35.506 32.8555 -0.458068 5.08663 34.9488 1.41844 3.21664 34.9111 -0.639372 
3.32559 37.1746 1.41876 8.80716 34.831 1.34994 7.07557 37.0957 1.48285 
9.03095 36.9208 -0.525821 10.7859 32.8293 1.36795 12.7275 34.852 1.41508 
10.8808 34.7261 3.44625 10.8286 34.7388 -0.797373 12.7774 36.9231 3.59962 
14.5344 32.7056 1.46608 16.5302 34.9177 1.43317 16.3514 32.7533 -0.666358 
16.5583 36.8742 3.47813 20.2771 32.7129 -0.58405 20.2183 34.6943 1.31824 
18.4404 34.8752 3.49642 22.08 34.7914 -0.699059 18.3221 34.8909 -0.711791 
25.8998 32.7044 1.36138 23.9942 34.9794 1.51968 25.939 34.7136 -0.538371 
23.7877 32.8553 -0.71893 29.5852 32.8229 1.30276 27.7192 34.9118 1.49196 
27.8182 32.5348 -0.764521 29.6915 34.8683 -0.712217 33.4793 32.7459 1.35658 
31.5735 34.8993 1.22911 31.6276 32.5804 -0.739276 31.4735 36.8423 -0.679172 
39.1097 34.8336 1.55259 37.2391 32.8635 1.50178 35.2722 34.951 1.60837 
37.1977 36.7776 1.61141 4.92213 41.1388 -0.545766 3.02763 41.2061 1.53225 
5.04183 39.1527 1.54547 1.25788 39.0556 1.46919 1.36833 37.062 -0.649055 
1.11587 41.0948 3.61757 5.12747 36.8948 3.4159 6.85549 41.1942 1.49247 
9.06035 38.866 1.6019 6.77495 39.2176 -0.488866 8.84157 41.0837 -0.29622 
10.9327 41.1275 1.79549 10.9855 36.8746 1.35625 12.7351 39.0398 1.58679 
14.911 40.9492 1.48409 14.5664 37.0104 1.43773 16.6775 38.9016 1.56787 
14.7016 38.8582 3.52613 17.9937 41.2379 1.34794 18.392 36.9825 1.35786 
22.1731 37.0341 1.53811 20.1215 39.041 1.44599 18.4402 39.2229 3.55171 
21.9184 39.0618 -0.69332 25.7315 41.08 1.46268 25.8712 37.0231 1.45264 
24.0919 39.0441 1.46415 25.9597 38.8288 -0.696108 29.7257 36.9432 1.38997 
27.797 38.9284 1.49919 27.7468 36.8441 -0.559433 29.6741 39.1416 -0.668305 
33.2954 36.929 1.41052 31.4863 38.9345 1.3774 33.4382 38.9987 3.4149 
33.4075 38.9509 -0.596515 37.287 41.0916 1.45936 35.2941 38.8424 1.56443 
35.2084 36.9687 3.63947 37.115 38.8963 3.49654 37.4295 38.871 -0.557672 
2.91247 1.49588 3.60546 5.01939 1.54444 5.70482 3.04516 1.39578 7.71474 
4.99053 3.59738 3.70131 2.998 3.63012 5.61669 4.90682 3.59185 7.59058 
3.18663 -0.609232 5.49305 7.01892 1.57372 3.61388 8.93587 1.35709 5.72271 
6.89621 1.65438 7.60298 6.96428 -0.731671 5.62129 12.6595 1.40985 5.60691 
10.8304 1.5228 7.79208 12.4987 -0.676856 7.78554 14.6019 1.45771 3.48049 
16.3494 1.41185 5.94695 14.3993 1.31421 7.83826 20.3141 3.61168 3.70706 
[...]
POINT_DATA 4000
FIELD FieldData 6
id 1 4000 int
4 8 2 12 409 449 6 16 410 
413 453 10 20 457 417 24 418 23 
18 21 59 28 25 426 425 32 30 
29 31 36 75 34 35 434 473 40 
37 438 43 48 44 441 47 52 446 
87 51 56 450 55 60 454 95 497 
63 64 99 67 68 107 466 71 72 
111 470 76 115 513 474 79 80 119 
78 83 485 88 482 521 489 92 91 
493 96 490 131 100 494 537 103 104 
143 541 502 98 108 147 505 506 545 
110 112 151 549 116 155 514 553 84 
517 120 518 557 118 159 157 525 123 
128 163 522 165 127 132 167 526 169 
136 173 135 137 140 134 139 144 179 
542 183 148 187 185 152 191 150 156 
195 124 160 161 158 199 197 168 203 
561 172 171 573 176 570 211 175 180 
574 177 215 577 184 581 181 182 188 
227 625 186 192 231 189 190 196 194 
235 594 164 200 598 239 637 237 208 
204 243 207 609 209 212 247 249 613 
216 610 210 251 220 617 614 219 223 
224 622 259 621 618 228 626 225 226 
229 232 236 634 275 233 273 240 638 
279 238 245 248 642 242 244 252 287 
646 246 250 256 650 291 293 255 260 
697 257 263 264 661 662 267 268 666 
266 665 271 269 272 270 311 669 276 
274 280 678 319 241 278 283 285 288 
323 282 289 292 327 686 296 690 290 
295 300 297 299 701 301 303 304 339 
302 343 307 308 306 312 710 310 315 
316 314 714 313 284 320 281 318 317 
357 328 322 363 332 367 369 331 336 
730 330 773 335 340 337 777 341 344 
738 342 338 347 348 346 345 351 352 
349 350 355 356 353 393 324 359 360 
399 5 3 368 364 361 401 765 7 
372 366 9 11 371 376 15 375 380 
774 19 379 383 384 778 382 27 387 
388 386 391 392 389 390 395 396 794 
394 39 400 797 798 398 402 408 802 
445 443 845 403 406 412 806 407 416 
810 813 414 420 814 461 422 424 818 
419 465 428 467 825 826 430 432 471 
469 431 436 435 404 440 838 837 442 
448 483 444 841 885 447 452 889 487 
846 451 456 893 455 460 854 897 458 
462 459 463 464 503 468 507 509 869 
472 511 870 475 476 913 478 479 481 
477 877 480 488 484 523 921 486 492 
527 491 496 495 500 535 894 501 498 
901 499 504 902 898 508 945 906 510 
909 512 910 515 516 555 914 519 917 
520 559 528 563 524 922 529 532 533 
530 531 933 536 534 540 539 543 538 
544 942 546 547 548 946 587 985 551 
550 589 552 591 989 949 554 556 595 
954 593 993 558 957 597 560 958 961 
565 562 605 568 603 1005 564 566 569 
567 572 607 973 571 576 1013 970 575 
580 615 977 974 578 582 579 583 981 
584 978 982 585 586 588 627 986 590 
592 990 1029 631 633 596 635 994 599 
601 600 998 1037 602 645 608 604 1002 
606 612 647 611 653 616 1010 1053 651 
620 1014 655 619 623 624 1022 659 628 
667 1065 1026 630 629 632 1030 1069 636 
1034 675 1073 639 677 640 1038 641 643 
648 683 1045 649 652 1089 656 1050 1093 
654 657 660 658 663 664 1061 1062 699 
703 1058 668 707 1066 709 671 670 672 
711 674 673 676 1074 1113 679 681 644 
680 1078 719 685 682 688 684 721 723 
687 689 692 729 727 693 691 696 1090 
694 695 700 702 741 698 704 705 706 
708 1106 712 713 715 716 718 717 720 
1117 759 1118 725 722 728 724 763 1161 
726 769 732 767 1129 733 731 736 771 
1173 737 734 735 740 775 742 739 743 
744 1141 1142 745 747 746 748 787 785 
749 750 751 752 1150 791 754 753 1153 
755 756 795 757 758 760 799 405 762 
768 761 764 1162 766 772 1166 1169 770 
411 776 1170 415 780 421 782 423 781 
783 779 784 786 427 788 1186 789 790 
429 792 1190 433 793 796 1193 437 439 
800 808 1202 804 803 801 843 849 809 
812 807 816 811 817 820 815 822 861 
824 819 821 828 827 830 832 1230 834 
836 875 833 840 839 842 844 848 883 
1242 1241 847 852 853 850 851 856 1250 
1293 855 857 860 858 862 859 863 864 
1258 865 866 867 1265 868 1266 905 907 
1305 871 872 911 873 874 1273 876 1274 
915 881 878 879 880 919 1277 1281 882 
888 884 1282 886 887 892 1286 890 891 
896 931 1290 895 900 1294 1337 903 899 
904 1302 1341 908 1306 1309 912 1310 1349 
953 916 955 918 920 1318 925 923 928 
924 926 929 927 932 967 930 936 1330 
1373 1333 937 934 935 940 941 938 939 
943 1338 944 947 1345 948 1346 951 950 
952 991 1353 956 995 959 960 999 1357 
1358 962 963 965 968 964 969 966 1009 
972 1409 1007 1369 971 976 1011 1370 975 
980 1374 979 983 984 1378 1023 1421 1025 
987 988 1027 1386 992 1390 1389 1429 1033 
996 1035 997 1000 1039 1001 1003 1008 1004 
1043 1445 1006 1049 1012 1406 1047 1016 1051 
1017 1015 1020 1055 1057 1018 1021 1019 1024 
1063 1059 1422 1028 1067 1031 1032 1071 1430 
1036 1075 1040 1438 1077 1085 1042 1048 1442 
1083 1046 1449 1052 1056 1054 1060 1497 1064 
1099 1103 1101 1462 1068 1466 1107 1070 1109 
1072 1111 1509 1076 1474 1115 1513 1079 1041 
1044 1441 1080 1082 1081 1088 1123 1086 1087 
1092 1486 1529 1091 1096 1533 1490 1094 1097 
1095 1100 1137 1098 1102 1104 1139 1105 1505 
1108 1506 1545 1149 1110 1112 1549 1114 1116 
1514 1155 1119 1084 1120 1159 1157 1121 1122 
1125 1124 1128 1126 1127 1132 1167 1130 1133 
1131 1136 1530 1135 1134 1140 1138 1143 1144 
1179 1541 1145 1146 1147 1148 1585 1189 1151 
1152 1550 1589 1154 1156 1195 1158 1160 1199 
1165 805 1163 1168 1164 1561 1172 1566 1569 
1171 1176 1174 1177 1175 1180 1217 1182 823 
1581 1178 1181 1183 1184 1582 1185 1187 1188 
829 831 1191 1192 1194 835 1196 1197 1198 
1200 1598 1205 1208 1204 1206 1209 1212 1207 
1606 1210 1253 1213 1216 1251 1211 1214 1220 
1614 1218 1222 1261 1224 1223 1226 1225 1228 
1227 1625 1269 1229 1232 1271 1234 1236 1233 
1235 1238 1237 1240 1239 1638 1245 1243 1248 
1283 1244 1642 1681 1249 1246 1247 1649 1252 
1256 1653 1254 1257 1255 1260 1295 1697 1259 
1263 1262 1264 1303 1661 1267 1268 1705 1666 
1270 1272 1670 1311 1313 1275 1276 1713 1278 
1279 1280 1678 1285 1288 1284 1685 1682 1287 
1289 1292 1327 1686 1291 1296 1331 1297 1300 
1694 1301 1298 1299 1304 1343 1702 1339 1741 
1307 1308 1347 1706 1709 1312 1351 1749 1314 
1315 1316 1714 1753 1317 1319 1717 1320 1359 
1323 1325 1321 1322 1328 1329 1326 1332 1726 
1336 1730 1371 1335 1334 1340 1734 1737 1342 
1344 1379 1781 1745 1348 1746 1350 1352 1750 
1354 1355 1356 1793 1395 1324 1360 1361 1399 
1362 1365 1363 1368 1403 1364 1366 1367 1372 
1407 1769 1376 1411 1770 1813 1377 1375 1380 
1817 1415 1382 1381 1383 1384 1419 1782 1385 
1425 1387 1388 1427 1825 1391 1789 1392 1431 
1790 1393 1394 1396 1794 1397 1398 1400 1439 
1401 1402 1405 1801 1408 1443 1404 1845 1412 
1806 1410 1413 1416 1810 1451 1414 1417 1420 
1461 1423 1418 1424 1463 1861 1426 1428 1467 
1469 1432 1829 1433 1435 1434 1436 1833 1477 
1437 1440 1479 1485 1448 1444 1483 1446 1489 
1447 1452 1846 1487 1450 1453 1456 1491 1454 
1457 1455 1460 1495 1897 1459 1458 1464 1862 
1501 1499 1503 1465 1468 1905 1470 1471 1472 
1909 1473 1475 1476 1515 1517 1877 1478 1480 
1519 1482 1481 1881 1488 1484 1882 1492 1493 
1496 1531 1933 1494 1500 1535 1498 1502 1504 
1902 1539 1543 1507 1508 1547 1945 1906 1511 
1510 1512 1553 1913 1516 1914 1518 1520 1917 
1525 1522 1523 1528 1524 1563 1526 1527 1532 
1926 1573 1536 1534 1537 1540 1575 1538 1542 
1544 1942 1579 1546 1548 1946 1949 1551 1552 
1591 1950 1554 1555 1556 1593 1595 1557 1521 
1559 1558 1560 1957 1597 1562 1565 1965 1601 
1203 1568 1605 1567 1572 1966 1571 1570 1576 
1613 1215 1577 1574 1580 1974 1578 1221 1219 
1981 1584 1982 1583 1978 1985 1586 1587 1588 
1231 1590 1592 1594 1596 1994 1201 1564 1599 
1600 1602 1608 2005 2001 1609 1612 2006 1607 
1610 1616 1651 2010 1657 1617 1620 1655 1615 
1618 1622 1621 1624 2022 1659 1663 1619 1626 
1665 1628 1667 1627 1630 1632 1671 2030 1634 
1636 1635 1673 2034 1637 1604 1640 2077 1639 
1677 2038 1641 1645 2045 1643 1648 1683 1646 
1647 1652 1650 1693 1656 1691 2053 2050 2093 
1654 1660 1658 2061 1662 1664 1701 1668 2066 
1669 2069 1672 2070 1674 1675 1676 1715 2113 
2041 1644 1679 1680 1688 1684 1723 1689 1687 
1692 1727 1733 1690 1696 1731 1695 1700 2094 
1735 1699 1703 1698 1739 1704 2102 1707 1708 
2106 1747 2105 1711 1710 2109 1712 2110 1716 
1755 2114 1718 1719 1720 1759 2081 2118 1725 
1721 1722 1728 2122 2165 1729 1732 1773 1736 
1771 2173 1777 1740 2134 2177 1738 1742 1743 
1744 2138 1783 1779 2145 1748 2146 1751 1752 
1791 2150 1754 1756 1757 1758 1724 1760 2158 
1805 1765 1762 1763 1768 2162 2205 1766 1767 
1772 1807 2209 1776 1811 2170 1774 1775 1780 
2174 2217 1778 1821 1784 1819 2178 2221 1786 
1785 1787 2185 1788 1827 2225 2189 1792 2190 
1795 1796 1761 1764 1797 1798 1799 1800 1802 
1803 1808 2245 1809 1849 1812 1847 1816 2210 
2213 1814 1857 1815 1820 1823 1818 1822 1824 
2218 1863 2222 1826 1828 1830 1831 1832 2230 
1834 1835 1836 1837 1838 1839 1804 1840 1842 
1843 1848 1883 2241 2242 1852 1889 1853 1850 
1851 1856 1854 1855 1860 1895 2257 1858 1859 
1864 2261 1899 2258 1866 1865 1867 1868 1907 
1869 1871 1870 1872 1911 2309 1873 1874 1875 
1876 2274 1915 1878 1841 1844 1879 1880 1885 
1925 1888 2282 1884 2325 1887 1886 1929 1892 
1927 1893 1891 1890 1896 1931 1937 1894 1900 
1935 2294 1901 1898 1903 1904 1908 2306 1947 
2305 1910 1912 2349 1953 1916 2313 1918 1919 
1920 2321 1959 1922 1923 1928 2365 1963 2322 
1932 2329 1930 1936 1973 1971 1934 1977 1940 
1941 1939 1943 1938 1944 2338 1948 2385 1989 
1951 1952 1991 2350 1954 1955 1956 1961 1921 
1924 1958 1960 1603 1962 1968 2362 1969 1967 
1972 2009 1970 1611 1976 2013 1975 1980 1623 
1979 1983 1984 2382 1986 1987 1988 1629 1631 
1990 1992 1633 1993 1995 1996 2033 2393 1997 
1998 1999 1964 2000 2002 2004 2008 2445 2043 
2003 2402 2405 2012 2047 2049 2406 2007 2409 
2016 2051 2410 2017 2014 2020 2015 2057 2018 
2021 2019 2023 2024 2059 2026 2025 2028 2426 
2032 2071 2429 2430 2036 2073 2075 2434 2473 
2040 2037 2438 2079 2477 2437 2042 2048 2442 
2449 2046 2052 2489 2056 2450 2055 2054 2060 
2457 2058 2063 2062 2064 2065 2067 2068 2072 
2470 2509 2111 2469 2074 2076 2115 2513 2117 
2044 2078 2080 2083 2085 2082 2088 2084 2481 
2089 2087 2086 2092 2129 2091 2090 2096 2490 
2131 2133 2097 2095 2100 2137 2101 2099 2103 
2501 2098 2104 2141 2498 2107 2108 2545 2506 
2112 2151 2510 2149 2153 2116 2155 2514 2119 
2121 2120 2157 2159 2557 2123 2125 2128 2525 
2522 2161 2126 2127 2132 2167 2130 2136 2171 
2530 2573 2135 2140 2577 2142 2139 2143 2144 
2542 2541 2147 2148 2546 2152 2589 2154 2156 
2193 2195 2593 2553 2197 2124 2160 2561 2163 
2168 2164 2605 2169 2166 2172 2207 2566 2176 
2211 2570 2175 2180 2215 2574 2181 2182 2183 
2179 2184 2223 2582 2186 2187 2188 2625 2585 
2586 2229 2191 2192 2231 2590 2194 2196 2233 
2199 2198 2200 2239 2202 2203 2208 2204 2243 
2602 2206 2249 2212 2247 2216 2251 2214 2220 
2614 2617 2621 2219 2224 2618 2661 2226 2227 
2228 2267 2626 2265 2232 2629 2630 2669 2235 
2234 2236 2201 2238 2237 2240 2641 2248 2244 
2283 2246 2252 2287 2250 2293 2253 2256 2291 
2650 2297 2255 2254 2260 2301 2259 2264 2263 
2299 2658 2662 2701 2303 2262 2266 2268 2269 
2270 2271 2272 2670 2273 2275 2276 2713 2277 
2279 2278 2280 2678 2717 2285 2281 2288 2284 
2286 2289 2292 2327 2686 2290 2296 2333 2690 
2295 2300 2335 2298 2302 2304 2343 2702 2341 
2698 2308 2307 2347 2745 2311 2310 2312 2710 
2749 2314 2353 2315 2316 2317 2318 2357 2319 
2320 2359 2323 2328 2363 2326 2332 2367 2729 
2726 2330 2331 2336 2730 2337 2334 2340 2734 
2342 2339 2344 2379 2738 2742 2345 2346 2348 
2387 2389 2351 2352 2391 2789 2355 2354 2356 
2754 2793 2324 2358 2360 2757 2758 2368 2364 
2366 2369 2372 2011 2370 2371 2373 2376 2377 
2374 2375 2380 2381 2378 2383 2384 2386 2027 
2388 2029 2390 2031 2392 2790 2394 2035 2395 
2396 2361 2039 2401 2397 2398 2399 2400 2798 
2408 2443 2404 2802 2412 2806 2849 2407 2416 
2411 2813 2414 2420 2418 2417 2415 2814 2422 
2421 2424 2459 2818 2822 2423 2861 2465 2428 
2467 2826 2432 2830 2471 2829 2436 2475 2433 
2873 2440 2439 2801 2838 2448 2842 2881 2447 
2446 2452 2846 2889 2451 2453 2456 2491 2493 
2454 2455 2460 2495 2461 2463 2458 2462 2464 
2499 2858 2466 2468 2865 2866 2472 2511 2870 
2474 2476 2913 2874 2479 2441 2444 2478 2480 
2877 2482 2483 2485 2488 2885 2882 2529 2487 
2486 2492 2886 2496 2531 2533 2494 2497 2500 
2894 2535 2502 2503 2504 2539 2543 2505 2905 
2507 2508 2906 2945 2909 2512 2910 2515 2516 
2914 2555 2953 2517 2519 2484 2518 2520 2918 
2921 2521 2523 2528 2524 2925 2569 2527 2526 
2532 2536 2571 2537 2534 2540 2538 2544 2938 
2941 2547 2548 2946 2550 2949 2549 2551 2552 
2950 2989 2554 2556 2993 2558 2559 2560 2563 
2565 2562 2568 2564 2567 2572 2607 2609 3009 
2576 2613 2575 2580 2615 2977 3017 2581 2579 
2583 2578 2584 2981 2978 2982 2619 3021 2587 
2588 2985 2623 2986 2591 2592 2990 2594 2633 
2595 2596 2994 2635 2597 2599 2598 2600 2637 
3037 2601 2603 2608 2604 2645 2643 3045 2606 
2649 2612 2647 3013 2610 2611 2616 2651 2653 
2657 2620 2655 3014 2622 2624 3022 2659 3018 
2665 2627 2628 3025 3026 2631 3029 2632 2671 
2673 2634 2636 2675 3034 3033 3073 2638 2639 
2640 2679 2642 2648 2644 2646 2652 2687 3049 
2656 2691 3050 3093 2693 2654 2660 2695 2697 
3054 2663 2664 2699 3061 3062 2666 2667 2668 
3065 3066 2709 2672 2711 3070 2674 2676 2715 
3113 3077 2677 2680 2719 3078 2682 2685 2683 
2681 2688 3082 3085 2689 2692 3086 2696 3090 
2694 2700 2735 2737 3094 2703 2704 2741 2739 
2743 3098 2705 2707 2706 2708 3106 2747 2712 
2751 3110 2714 2716 3153 2684 2721 2718 2720 
3117 3118 2725 2722 2723 2728 2763 2727 2732 
3126 2733 2773 2731 2736 3173 3130 2777 2740 
3134 2775 2744 2779 3138 3142 2746 2785 2748 
3185 2750 2752 2791 3149 2753 2755 2756 3193 
2724 2759 2760 3197 2403 2765 2762 2768 2805 
2767 2769 3169 2766 2772 3166 2413 2770 2771 
2776 3170 2817 2774 2780 3174 2781 2778 2782 
2419 2821 2783 2784 3182 3178 2425 2786 2427 
2787 2788 2825 2431 2792 3190 2794 2435 2795 
2796 2833 2761 2799 3161 2764 2797 2800 2808 
2804 2803 3201 2812 2809 3209 2853 2810 2816 
3210 2857 2820 2855 2824 2859 2863 2828 3226 
2827 3265 3225 2832 3230 3269 2834 2836 3234 
3273 2841 2840 2839 2837 3238 3277 3237 2843 
2845 2848 2844 3285 2847 2852 3246 2850 2893 
2851 2856 2891 3250 2854 2860 2897 3254 2895 
3257 2862 2864 3261 3258 3262 3301 2867 2868 
2907 3266 2869 2871 2872 3270 3309 2875 2876 
2915 2879 2878 2880 2919 2917 3317 3278 2883 
2888 2884 3282 2887 2892 2890 2896 2931 3290 
2900 2937 3294 2901 2902 2903 2899 2898 2904 
3302 2908 2947 3345 2911 2912 2916 3353 2920 
2959 3281 2923 2922 2928 2965 3325 2929 2927 
2926 2932 2967 2973 3333 2933 2930 2936 2934 
2935 2940 3337 3334 2942 2939 2943 2944 3338 
2948 3385 2987 3346 2951 2952 3349 2991 2954 
2955 2956 3393 2957 2924 2958 2960 2962 2963 
2968 3001 2969 2966 2972 3007 2971 2970 2976 
3011 3413 2975 2974 2980 3015 3374 2983 2979 
2984 3381 3019 3378 2988 3386 3389 2992 3031 
3390 3429 2995 2996 3035 2961 2997 2999 2964 
2998 3000 3039 3005 3002 3003 3008 3006 3012 
3449 3010 3016 3051 3410 3453 3020 3057 3414 
3421 3023 3024 3422 3059 3418 3027 3028 3069 
3030 3032 3071 3469 3036 3075 3433 3473 3038 
3041 3004 3040 3438 3477 3043 3042 3048 3442 
3083 3046 3047 3052 3087 3446 3053 3056 3450 
3091 3097 3055 3060 3095 3454 3457 3058 3101 
3063 3064 3099 3458 3462 3067 3068 3466 3072 
3111 3470 3074 3076 3115 3474 3079 3044 3080 
3478 3441 3081 3088 3123 3089 3092 3127 3529 
3096 3490 3100 3135 3137 3494 3103 3102 3104 
3139 3141 3143 3145 3105 3107 3108 3147 3505 
3545 3109 3112 3151 3114 3116 3514 3155 3084 
3119 3120 3121 3481 3521 3125 3122 3128 3163 
3522 3129 3132 3167 3526 3569 3133 3131 3136 
3533 3171 3573 3177 3140 3175 3537 3181 3144 
3179 3183 3146 3148 3187 3585 3546 3150 3152 
3189 3191 3589 3154 3156 3195 3553 3157 3158 
3159 3124 3160 3558 3205 3165 3565 3162 3168 
3562 2807 3172 3566 2811 3176 3570 2815 3180 
3574 3221 2819 2823 3184 3578 3186 3188 2831 
3192 2835 3194 3196 3233 3199 3597 3164 3198 
3200 3202 3208 3243 3203 3602 3645 3206 3249 
3212 3606 3609 3216 3251 3253 3653 3610 3613 
3214 3220 3614 3657 3222 3218 3224 3263 3219 
3223 3228 3267 3227 3232 3229 3271 3630 3236 
3275 3634 3235 3204 3241 3240 3239 3641 3637 
3245 3242 3248 3244 3685 3289 3247 3252 3287 
3646 3689 3293 3256 3291 3650 3693 3255 3260 
3697 3259 3264 3303 3658 3662 3268 3307 3666 
3669 3272 3670 3274 3276 3313 3315 3713 3674 
3279 3280 3319 3677 3678 3283 3288 3682 3323 
3286 3292 3327 3686 3296 3331 3690 3295 3297 
3300 3299 3298 3304 3343 3701 3702 3339 3305 
3306 3308 3347 3705 3706 3745 3709 3311 3310 
3312 3351 3710 3749 3314 3316 3355 3284 3321 
3318 3320 3357 3359 3718 3365 3322 3328 3363 
3326 3329 3332 3729 3369 3373 3330 3336 3371 
3730 3377 3335 3737 3340 3375 3342 3341 3344 
3742 3781 3383 3738 3348 3387 3746 3350 3352 
3391 3750 3354 3356 3395 3753 3358 3324 3360 
3397 3399 3362 3368 3403 3805 3366 3367 3372 
3409 3370 3376 3773 3813 3411 3380 3774 3817 
3379 3382 3384 3782 3778 3388 3786 3427 3825 
3789 3392 3431 3394 3396 3794 3361 3401 3437 
3364 3398 3400 3405 3402 3408 3407 3406 3412 
3806 3416 3451 3810 3417 3415 3420 3455 3814 
3857 3461 3419 3423 3424 3459 3425 3426 3428 
3467 3865 3430 3432 3830 3471 3435 3434 3436 
3475 3834 3873 3404 3439 3440 3479 3801 3443 
3445 3448 3483 3485 3842 3447 3452 3487 3849 
3889 3456 3493 3850 3853 3460 3495 3497 3854 
3861 3463 3464 3862 3501 3465 3468 3509 3472 
3513 3476 3515 3444 3480 3519 3881 3482 3488 
3882 3486 3489 3492 3527 3491 3496 3890 3500 
3535 3498 3502 3499 3503 3504 3541 3898 3902 
3901 3506 3507 3508 3906 3510 3511 3512 3516 
3555 3557 3517 3484 3518 3520 3559 3957 3918 
3525 3523 3528 3563 3922 3929 3532 3969 3530 
3531 3933 3536 3571 3534 3937 3540 3577 3538 
3542 3581 3539 3543 3544 3938 3942 3579 3547 
3583 3548 3587 3946 3985 3549 3550 3551 3552 
3950 3554 3556 3595 3524 3560 3958 3561 3568 
3564 3605 3965 3567 3207 3572 3966 3213 3211 
3576 3970 3973 3217 3575 3977 3215 3580 3974 
3582 3584 3978 3982 3586 3588 3625 3590 3231 
3591 3592 3990 3989 3593 3594 3596 3994 3599 
3598 3600 3998 3961 1 3608 3603 3604 41 
49 3612 3649 3616 3651 13 17 14 3620 
3615 22 3661 3618 3622 3624 3659 26 65 
3626 3628 3667 69 3632 3671 73 3673 3636 
38 77 3638 3640 3679 3639 45 42 3642 
85 3643 3648 46 3647 3652 53 50 3656 
57 3654 54 97 3655 3660 58 61 3663 
62 3664 3699 66 105 3665 3668 3707 70 
109 3672 3711 74 3675 3676 3715 113 117 
3681 3644 3680 3717 3719 125 82 3683 3688 
86 3687 89 129 3692 93 3691 90 3696 
3694 3695 94 3700 101 102 3698 3703 141 
3704 3743 106 3708 3747 149 3712 3751 114 
153 3714 3716 3755 121 81 3684 3720 3759 
3757 122 3725 3723 3721 3722 3728 126 3727 
3726 3732 130 3733 133 3731 3736 3771 3735 
3734 3740 3739 3741 138 142 3744 3779 3783 
145 3785 146 3748 3787 3752 3791 154 193 
3793 3754 3756 3724 3758 3760 3799 162 205 
3762 3763 3765 3768 3766 3767 3769 166 3772 
170 3770 3776 3811 174 3777 3775 3780 3815 
3821 221 178 3784 3823 3788 3827 3790 3829 
3792 3831 3795 3796 3833 198 201 3797 3798 
3761 3764 3800 202 3802 3803 3808 3845 206 
3807 3809 3812 3847 213 3816 217 214 3820 
3855 218 3819 222 3818 3822 3824 3826 3828 
3867 230 3869 3832 3835 234 3836 3875 277 
3837 3804 3838 3839 3840 3877 3879 3843 3848 
3885 3846 3852 3851 253 3856 3893 3891 254 
3860 258 3858 262 261 3859 3863 3864 3899 
265 3905 3866 3868 3870 3871 3872 3911 3913 
3874 3876 3915 3878 3841 3844 3880 3919 325 
3883 3888 3923 3925 286 3887 3886 3892 3896 
3931 294 3897 3894 3895 3900 3935 298 3903 
3904 3943 305 3907 3908 3947 309 3949 3909 
3910 3912 3914 3953 3916 3955 3917 3884 3920 
3959 3921 3928 3924 329 326 3926 3927 3932 
333 3930 3936 3934 334 377 3940 3941 3981 
3939 3944 381 3983 3945 3948 3987 3951 3952 
3991 3954 354 3956 3995 3993 321 358 3960 
397 3999 365 362 3601 3962 3963 3968 3967 
3607 3972 3971 3611 370 373 3976 3617 374 
3975 3980 378 3621 3979 3619 3623 3984 385 
3986 3627 3988 3631 3629 3992 33 3635 3633 
3996 3997 3964 4000 
type 1 4000 int
1 1 1 1 1 1 1 1 1 
1 1 1 1 1 1 1 1 1 
1 1 1 1 1 1 1 1 1 
1 1 1 1 1 1 1 1 1 
1 1 1 1 1 1 1 1 1 
1 1 1 1 1 1 1 1 1 
1 1 1 1 1 1 1 1 1 
1 1 1 1 1 1 1 1 1 
1 1 1 1 1 1 1 1 1 
1 1 1 1 1 1 1 1 1 
1 1 1 1 1 1 1 1 1 
1 1 1 1 1 1 1 1 1 
1 1 1 1 1 1 1 1 1 
1 1 1 1 1 1 1 1 1 
1 1 1 1 1 1 1 1 1 
1 1 1 1 1 1 1 1 1 
1 1 1 1 1 1 1 1 1 
1 1 1 1 1 1 1 1 1 
1 1 1 1 1 1 1 1 1 
1 1 1 1 1 1 1 1 1 
1 1 1 1 1 1 1 1 1 
1 1 1 1 1 1 1 1 1 
1 1 1 1 1 1 1 1 1 
1 1 1 1 1 1 1 1 1 
1 1 1 1 1 1 1 1 1 
1 1 1 1 1 1 1 1 1 
1 1 1 1 1 1 1 1 1 
1 1 1 1 1 1 1 1 1 
1 1 1 1 1 1 1 1 1 
1 1 1 1 1 1 1 1 1 
1 1 1 1 1 1 1 1 1 