# vtk DataFile Version 4.0
Generated by LAMMPS
ASCII
DATASET POLYDATA
POINTS 4000 float
0.205685 2.0227 1.75151 4.1104 1.55388 1.85583 2.21665 3.91418 1.84466 
1.9899 1.8418 3.86741 3.9659 -0.18011 3.93135 4.09669 3.73392 4.00105 
0.229849 3.9742 3.9957 8.08324 2.02324 1.8531 5.97276 3.8235 1.91886 
6.22762 1.5764 3.87308 8.14744 4.00885 3.67818 12.1541 1.78381 1.86005 
10.1088 3.84369 1.65976 10.1608 1.92727 3.89279 12.1781 3.82803 3.88157 
10.1789 -0.23173 1.8482 12.1947 -0.0494081 3.90192 12.1851 3.82976 -0.21682 
16.2478 1.83218 1.86452 14.189 3.85938 1.83312 14.3118 1.93389 3.99212 
16.1824 3.98771 3.84719 16.3407 -0.101785 3.8316 20.3147 1.86164 1.95181 
18.2507 3.80208 1.83417 22.3482 3.8369 1.87314 18.1854 1.8784 3.85949 
22.2436 1.71373 3.96729 20.2077 3.98769 3.98345 24.4537 1.89713 1.82788 
24.3577 3.93042 -0.185382 26.4103 3.95336 1.7971 26.4761 1.85152 3.72877 
24.2936 3.89432 3.89583 26.4158 1.9059 -0.226994 24.3969 -0.17942 -0.183396 
30.2872 1.79669 -0.158071 28.272 1.77107 1.63289 30.2609 3.91018 1.86916 
30.2644 1.92406 3.95917 28.3253 4.12907 3.86536 28.3451 -0.139013 3.93384 
32.1404 1.958 1.9099 34.1717 3.96191 1.93039 34.1719 1.91202 3.95178 
32.1542 3.83482 3.91931 38.2564 1.88545 0.0264276 36.1968 1.94706 2.0069 
38.3788 3.94504 1.89952 38.4193 1.97184 3.97401 36.3571 3.75721 3.96816 
36.2605 3.88472 0.110233 4.38225 6.0464 1.86809 2.26186 7.94866 2.06194 
4.30826 8.0604 -0.0452815 2.23288 5.87955 4.03338 0.18033 7.94462 3.88433 
4.29917 7.88731 3.86855 0.217355 6.01987 1.92429 0.225536 8.07381 -0.193595 
2.43111 5.98816 -0.00636774 8.13578 6.0083 1.70229 6.37092 8.19147 1.81344 
6.24244 5.82348 3.97071 8.19786 7.92051 3.90676 12.2316 6.08915 1.86189 
10.1891 7.94129 1.81847 12.2287 7.95769 -0.0937213 10.0612 5.95547 3.83467 
12.347 8.03512 3.85013 10.1965 5.95086 -0.188114 14.0886 5.91064 -0.0384719 
16.2027 5.90417 1.78826 14.3749 8.11761 1.89982 14.183 5.98945 3.70595 
16.266 8.06326 3.93859 20.2366 5.90085 1.87418 18.2347 7.91457 1.87281 
22.2053 7.8147 1.90706 18.2114 6.04268 3.894 22.3025 5.92613 3.86993 
19.9507 8.07799 4.01595 24.386 5.9239 1.83811 26.2135 8.04284 1.83195 
26.3645 6.04291 3.99991 24.2313 8.03962 3.93096 28.3115 6.02947 1.88383 
28.1797 8.05456 0.0485913 30.3426 8.07759 1.97138 30.2578 6.0243 3.86597 
28.4295 7.96293 3.81778 34.1834 6.01986 -0.0520576 32.4018 6.06546 2.00795 
34.4507 8.07749 2.07506 34.3759 5.89316 4.08788 32.4016 7.98573 4.03684 
38.5024 5.87005 -0.133037 36.396 5.97077 1.96374 36.2984 7.95446 -0.18814 
38.4994 8.01384 1.74939 38.4299 5.88026 4.13776 36.4402 7.95238 3.95662 
2.20803 9.99278 -0.136223 4.17032 10.0936 1.99583 2.04825 12.0921 1.96129 
2.2643 9.91518 4.00069 4.03433 12.2623 3.84633 6.18756 10.1404 -0.132779 
8.1425 10.0319 1.96634 6.08055 12.1663 1.80134 6.20983 10.0312 3.98078 
8.16077 12.1389 3.766 10.294 10.0284 -0.334996 12.3793 10.0526 1.85737 
10.245 11.9123 1.86616 10.3337 9.90572 3.74387 12.197 12.0244 3.87487 
14.3619 10.0674 -0.0810978 16.257 10.1313 2.00158 14.3674 12.0811 1.91754 
16.3952 12.2514 -0.174675 14.1169 10.0871 3.97494 16.3292 12.3529 3.94914 
18.191 9.97066 -0.154055 20.2246 9.96825 1.6111 18.2867 12.1817 1.81809 
22.345 12.1612 1.87827 18.1495 10.1472 3.89407 22.2087 9.8944 3.70517 
20.2493 11.9271 3.65771 24.3336 9.95764 1.92889 26.2259 12.133 1.73496 
26.3112 9.82323 3.86048 24.2122 11.9592 3.97013 30.4742 10.0878 -0.189113 
28.3983 10.1994 1.85671 30.5623 12.189 1.97942 30.2675 9.99292 3.88095 
28.453 12.0848 3.99949 32.4938 10.1266 2.05957 34.2953 12.2131 1.8753 
34.3726 10.1236 4.16772 32.4346 12.0186 4.05883 34.353 10.0711 -0.147444 
40.3895 10.0565 1.86012 40.2505 11.8997 3.87302 36.2634 10.1393 2.02424 
38.2604 12.1618 1.86737 38.2578 10.0235 3.78266 36.1969 12.1591 4.10936 
36.2815 12.0716 -0.00391138 2.01577 14.1136 -0.182803 4.04107 14.2903 1.69789 
2.20097 16.298 2.05546 1.91893 14.0098 3.89061 4.10955 16.1167 4.02269 
8.31599 14.0433 1.82467 6.16626 16.1808 1.84478 6.05423 13.9611 3.77608 
8.19118 16.233 3.78971 10.3413 14.0255 -0.0575587 12.4734 14.0702 1.83605 
10.2822 16.0342 1.90684 12.4022 16.0435 -0.161231 10.2362 14.1402 3.887 
12.2524 16.0925 3.9597 16.4162 14.2667 1.78658 14.4175 16.1534 2.03988 
14.2577 14.13 4.12293 16.4046 16.2181 3.91313 18.3103 14.1472 -0.210517 
20.376 14.2938 1.79789 18.3242 16.3663 1.79707 22.415 16.2508 1.86563 
18.3464 14.1248 3.86766 22.4377 14.133 3.85806 20.2353 16.1402 3.89708 
24.3733 14.1518 1.87318 26.2184 16.2068 1.85834 26.245 14.1256 3.9693 
24.2428 16.2251 3.87469 24.3507 16.2058 -0.237583 30.5012 14.2063 -0.344706 
28.4412 14.1384 1.80686 28.2691 16.0551 -0.342137 30.2144 16.2435 1.84539 
30.4196 14.0903 4.21113 28.2934 16.1171 3.88949 32.398 14.1231 2.11794 
34.2081 16.195 1.99574 34.3217 14.202 4.12599 32.1429 16.1975 4.0506 
34.4804 14.2231 -0.107967 40.1454 14.1167 1.74732 40.3349 16.2129 -0.31109 
40.1726 16.2179 4.07997 36.3395 14.1513 1.89443 38.3562 16.3514 1.85659 
38.2917 14.1129 3.73168 36.2886 16.0734 3.85286 36.2841 16.1907 -0.275928 
4.05996 18.2726 1.78329 2.13149 20.3259 2.05536 4.0583 22.3031 2.06254 
2.18397 18.2331 3.98735 0.220573 20.3523 3.92054 2.13199 22.2818 4.12949 
4.14533 20.2278 3.86882 2.0808 22.2592 -0.195799 8.20454 18.1174 1.80624 
6.2593 20.2105 1.93159 8.08296 22.1682 1.81813 5.96706 18.1123 4.03348 
6.27738 22.2559 3.88523 8.23106 19.976 3.90717 6.3082 18.2341 -0.158076 
10.2712 17.906 -0.0599071 12.2134 18.1611 2.10779 9.95399 20.2606 1.84941 
12.2567 22.2454 1.91277 10.1557 18.1071 4.0416 10.1312 22.2711 4.02637 
12.0816 20.2118 4.0209 14.1874 18.22 -0.178849 16.181 18.2075 1.69352 
14.1384 20.2134 1.86269 16.1824 22.2574 1.74399 14.2997 18.1749 4.02724 
14.2954 22.2065 3.83645 16.2357 20.0925 3.88503 14.1999 22.2932 -0.127183 
20.3884 18.1788 1.88291 18.2559 20.2153 1.85985 20.3329 20.2258 -0.228497 
22.3822 20.3443 1.74262 20.2119 22.2269 1.84841 18.2818 18.3188 3.83303 
22.4061 18.1909 3.93085 18.0073 22.2515 3.71447 20.262 20.206 3.76468 
22.2792 22.3503 4.09916 24.185 18.1866 1.82423 26.3074 20.3137 1.97027 
24.4468 22.2464 1.86066 26.3568 18.3266 3.8882 24.4111 20.2811 3.97287 
26.2087 22.2874 3.91566 26.3843 18.1109 -0.0743332 28.3096 18.0678 1.89706 
30.2864 22.3667 -0.0884246 30.3328 20.4053 1.90416 28.3872 22.3581 1.80644 
30.452 18.1678 4.07875 28.4944 20.4049 3.85929 30.1806 22.3636 4.02609 
30.3819 18.2681 -0.217245 28.4981 20.0981 -0.0911 34.3869 18.471 -0.116359 
32.377 18.1622 1.83552 34.2934 20.3382 2.08029 32.1174 22.4181 1.99341 
34.2341 18.2892 3.97375 32.1303 20.3733 4.08091 34.2454 22.335 4.02722 
32.3987 20.2156 -0.114818 34.2849 22.3277 -0.0684019 40.3582 18.4325 1.88242 
40.2441 22.1887 1.90538 36.2529 18.2398 1.80582 38.1656 22.3278 0.124422 
38.263 20.3555 1.84515 36.1204 22.5592 1.86412 38.1487 18.3721 3.9504 
36.2994 20.4842 4.00438 38.2962 22.2633 3.94689 36.2671 20.4188 -0.114576 
1.98091 24.1838 1.95348 0.199251 26.4316 1.87068 4.07155 26.3807 1.84186 
2.13095 26.4333 3.90958 4.17786 24.4039 4.12613 0.0717634 24.1743 3.92781 
4.27574 24.1926 -0.114801 6.11516 24.2667 1.94666 8.18045 26.3489 2.07241 
6.11595 26.4301 4.05114 8.16447 24.2758 3.88373 6.28928 26.3142 0.0157869 
8.2041 24.2375 -0.0517862 10.0891 26.4843 0.0307064 10.2346 24.2347 1.97661 
12.1131 26.5343 2.03372 10.152 26.4161 4.00765 12.2766 24.3062 3.87941 
12.2819 24.4875 -0.00742549 14.098 26.3472 0.0955543 14.2151 24.2323 1.89855 
16.1618 26.3678 1.84695 14.3397 26.4795 3.9361 16.2764 24.4763 3.9663 
18.2164 24.3235 1.77641 22.2672 24.2066 1.90525 20.1967 26.402 1.84412 
18.3506 26.4321 3.87701 20.1363 24.1101 3.78884 22.2486 26.2147 3.80669 
26.2452 24.2734 1.73733 24.3493 26.1774 1.87797 24.2773 24.1886 4.07601 
26.2786 26.2037 3.9569 30.152 24.4604 1.94119 28.1865 26.2333 1.71081 
28.131 24.3331 3.99248 30.1431 26.294 3.98642 30.2894 26.4451 0.0656718 
34.3577 24.3618 1.85188 32.1908 26.3817 2.03237 32.2245 24.3555 4.13785 
34.4029 26.4531 3.94457 32.2718 24.4425 -0.142023 36.3638 24.5755 -0.0197285 
38.3826 26.5283 -0.204011 38.2621 24.4536 1.86155 36.3343 26.5518 1.78252 
36.316 24.384 3.87912 38.4025 26.46 3.83297 2.25167 28.6688 1.85591 
0.229078 30.4945 1.8374 4.33248 28.5838 -0.0162576 4.45009 30.5549 1.88008 
2.27554 30.4634 3.94292 4.04801 28.435 3.95027 0.133533 28.5316 3.74482 
6.02237 28.2484 2.01967 8.18065 30.4702 1.91859 6.28905 30.4498 3.98258 
8.14255 28.485 3.97605 8.1438 28.372 0.0444289 10.073 28.4635 2.00581 
12.1766 28.411 -0.202756 11.9829 30.6316 1.75606 10.126 30.5841 3.90999 
12.2115 28.5427 3.94302 14.2831 28.5575 1.88342 16.3596 30.4314 1.7572 
14.1831 30.5285 3.92384 16.2949 28.6796 3.86888 18.2098 28.411 1.79762 
22.1837 28.4041 1.7166 20.4066 30.4856 1.93051 18.3124 30.4466 3.81181 
20.321 28.405 3.76169 22.2327 30.3706 3.88915 18.2572 30.6254 -0.21753 
24.408 28.3164 0.0531555 26.3354 28.2596 1.80555 24.2061 30.3553 1.86773 
24.1639 28.2347 3.80033 26.1916 30.3318 3.84525 26.1762 30.4635 -0.0617054 
30.2321 30.3988 -0.0502332 30.2991 28.3863 1.93995 28.3004 30.318 1.82125 
28.2604 28.2802 3.81135 30.2905 30.4494 3.85341 32.2044 28.3756 -0.124208 
34.1579 30.4938 -0.188044 34.2126 28.4535 1.97571 32.3716 30.4958 1.96255 
32.2484 28.4581 3.74271 34.3298 30.5475 3.96133 36.3293 28.3908 -0.282949 
38.3761 28.3928 1.83773 36.3479 30.5171 1.65107 36.2433 28.4371 3.92924 
38.1256 30.5118 3.89272 2.22298 32.4541 1.90781 0.113894 34.4559 1.82714 
4.284 34.5708 1.9088 2.10851 34.3948 3.91245 4.31587 32.51 3.99816 
6.14524 32.593 1.84765 8.32564 34.7136 1.71429 6.15169 34.6079 3.97364 
8.18789 32.6658 3.83789 6.25202 34.7058 -0.0995431 10.2151 32.6478 1.74144 
12.1731 34.6302 1.68502 10.2665 34.5428 3.923 12.3079 32.6966 3.8785 
14.3126 32.5661 1.7254 16.2626 34.5643 1.81847 14.3503 34.4906 3.91127 
16.1787 32.3907 3.78069 18.143 32.5197 1.78705 22.2997 32.4808 1.92655 
20.237 34.4572 1.82168 18.1986 34.4381 3.89803 20.2975 32.4437 3.85148 
22.1743 34.4114 3.89605 18.2744 34.5636 -0.198346 20.4738 32.5516 -0.31354 
24.2749 32.628 -0.0596273 26.3212 32.4519 1.82554 24.3533 34.748 1.89983 
[...]
POINT_DATA 4000
FIELD FieldData 6
id 1 4000 int
4 8 43 402 405 445 441 12 47 
406 449 16 51 410 453 11 413 53 
20 55 414 457 417 24 59 63 418 
422 461 28 65 67 426 465 26 25 
30 32 71 430 469 429 36 75 434 
473 38 40 79 438 477 77 48 83 
85 442 481 485 44 81 42 52 87 
446 489 56 91 93 450 493 50 54 
60 95 454 497 64 99 103 458 462 
501 68 107 466 505 72 109 111 470 
509 74 76 115 474 513 78 80 117 
119 478 517 82 88 123 482 525 86 
92 127 486 529 90 96 131 490 533 
94 100 135 137 494 537 98 104 139 
143 498 502 541 108 147 506 545 110 
112 151 510 549 116 155 514 553 114 
84 521 120 159 518 557 157 122 128 
163 522 565 132 167 526 569 130 136 
171 173 530 573 140 175 534 577 138 
144 179 183 538 542 581 148 187 546 
585 185 150 152 189 191 550 589 156 
195 554 593 154 124 161 561 160 199 
558 597 197 168 203 208 562 601 602 
605 202 172 207 212 566 606 609 166 
170 176 211 216 570 610 613 174 180 
215 220 574 614 617 214 184 219 221 
223 224 578 582 618 621 622 188 227 
228 586 625 626 186 192 230 231 232 
590 629 630 190 229 194 196 235 236 
594 633 634 233 234 164 204 200 238 
239 240 598 637 638 237 243 244 248 
642 645 641 245 247 252 646 649 246 
249 250 251 256 650 653 253 254 255 
260 654 657 259 263 264 658 661 662 
267 268 665 666 271 272 669 670 270 
275 276 673 674 273 277 278 279 280 
677 678 283 284 285 288 682 685 681 
287 292 686 689 289 291 293 296 690 
693 295 300 694 697 299 303 304 698 
701 702 298 305 307 308 705 706 306 
310 311 312 709 710 313 314 315 316 
713 714 317 319 320 717 718 323 324 
328 722 725 327 332 726 729 326 331 
336 730 733 335 340 734 737 339 343 
344 738 741 742 338 341 345 347 348 
745 746 346 351 352 749 750 349 355 
356 753 754 354 721 359 360 757 758 
3 361 363 365 368 762 765 362 7 
409 367 372 766 769 371 373 376 770 
773 370 15 375 380 774 777 23 421 
19 379 381 382 383 384 778 781 782 
425 27 387 388 785 786 31 391 392 
789 790 35 433 395 396 793 794 401 
39 364 761 437 399 400 797 798 1 
37 397 404 408 443 802 845 407 412 
447 806 849 411 416 451 810 813 853 
420 455 814 857 817 424 459 463 818 
821 822 861 419 423 428 467 825 826 
865 427 432 471 829 830 869 431 436 
475 834 873 435 833 841 440 479 837 
838 877 439 448 483 842 885 444 452 
487 846 889 456 491 850 893 460 495 
854 897 464 499 503 858 862 901 468 
507 866 905 472 511 870 909 476 515 
874 913 881 480 519 878 917 488 523 
882 925 484 921 492 527 886 929 496 
531 890 933 500 535 894 937 504 539 
543 898 902 941 508 547 906 945 512 
551 910 949 516 555 914 953 520 559 
918 957 528 563 922 965 532 567 926 
969 536 571 930 973 540 575 934 977 
544 579 583 938 942 981 548 587 946 
985 552 591 950 989 556 595 954 993 
524 961 560 599 958 997 568 603 608 
962 1005 572 607 612 966 1006 1009 576 
611 616 970 1010 1013 580 615 620 974 
1014 1017 584 619 623 624 978 982 1018 
1021 1022 588 627 628 986 1025 1026 592 
631 632 990 1029 1030 596 635 636 994 
1033 604 564 1001 600 639 640 998 1037 
1038 1002 643 644 648 1042 1045 647 652 
1046 1049 651 656 1050 1053 655 660 1054 
1057 659 663 664 1058 1061 1062 667 668 
1065 1066 671 672 1069 1070 1034 675 676 
1073 1074 1041 679 680 1077 1078 683 688 
1082 1085 1081 687 692 1086 1089 691 696 
1090 1093 695 700 1094 1097 699 703 704 
1098 1101 1102 707 708 1105 1106 711 712 
1109 1110 715 716 1113 1114 684 719 720 
1117 1118 723 724 728 1122 1125 727 732 
1126 1129 731 736 1130 1133 735 740 1134 
1137 739 743 744 1138 1141 1142 747 748 
1145 1146 751 752 1149 1150 755 756 1153 
1154 1121 759 760 1157 1158 403 805 763 
768 1162 1165 1161 809 767 772 1166 1169 
771 776 1170 1173 415 775 780 1174 1177 
779 783 784 1178 1181 1182 787 788 1185 
1186 791 792 1189 1190 795 796 1193 1194 
801 764 799 800 1197 1198 808 843 1202 
1241 1245 1201 807 812 847 1206 1209 1249 
816 851 1210 1213 1253 820 855 1214 1257 
824 859 863 1218 1222 1261 823 1221 827 
828 867 1225 1226 1265 832 871 1230 1269 
831 1229 836 875 1234 1273 804 840 879 
1237 1238 1277 844 848 883 1242 1281 1285 
852 887 1246 1289 856 891 1250 1293 860 
895 1254 1297 864 899 903 1258 1262 1301 
868 907 1266 1305 872 911 1270 1309 876 
915 1274 1313 880 919 1278 1317 888 923 
1282 1325 1321 892 927 1286 1329 896 931 
1290 1333 900 935 1294 1337 904 939 943 
1298 1302 1341 908 947 1306 1345 912 951 
1310 1349 916 955 1314 1353 884 920 959 
1318 1357 928 963 1322 1365 932 967 1326 
1369 936 971 1330 1373 940 975 1334 1377 
1338 944 979 983 1342 1381 948 987 1346 
1385 952 991 1350 1389 956 995 1354 1393 
924 1361 960 999 1358 1397 968 1003 1008 
1362 1402 1405 1004 972 1007 1012 1366 1409 
976 1011 1016 1370 1410 1413 980 1015 1020 
1374 1414 1417 984 1019 1023 1024 1378 1382 
1418 1421 1422 988 1027 1028 1386 1425 1426 
992 1031 1032 1390 1429 1430 996 1035 1036 
1394 1433 1434 964 1401 1000 1039 1040 1398 
1437 1438 1043 1044 1048 1442 1445 1441 1406 
1047 1052 1446 1449 1051 1056 1450 1453 1055 
1060 1454 1457 1059 1063 1064 1458 1461 1462 
1067 1068 1465 1466 1071 1072 1469 1470 1075 
1076 1473 1474 1079 1080 1477 1478 1083 1088 
1482 1485 1087 1092 1486 1489 1091 1096 1490 
1493 1095 1100 1494 1497 1099 1103 1104 1498 
1501 1502 1107 1108 1505 1506 1111 1112 1509 
1510 1115 1116 1513 1514 1481 1084 1119 1120 
1517 1518 1123 1124 1128 1522 1525 1127 1132 
1526 1529 1131 1136 1530 1533 1135 1140 1534 
1537 1139 1143 1144 1538 1541 1542 1147 1148 
1545 1546 1151 1152 1549 1550 1155 1156 1553 
1554 1521 1159 1160 1557 1558 803 1205 1163 
1168 1562 1565 1167 1172 1566 1569 811 1171 
1176 1570 1573 815 1217 1175 1180 1574 1577 
819 1179 1183 1184 1578 1581 1582 1187 1188 
1585 1586 1191 1192 1589 1590 835 1233 1195 
1196 1593 1594 1561 839 1164 1199 1200 1597 
1598 1208 1243 1602 1605 1645 1641 1212 1247 
1606 1609 1649 1216 1251 1610 1653 1220 1255 
1614 1657 1219 1223 1224 1259 1263 1618 1622 
1661 1228 1267 1625 1626 1665 1232 1271 1630 
1669 1235 1236 1275 1634 1673 1204 1240 1279 
1638 1677 1239 1244 1248 1283 1642 1685 1252 
1287 1646 1689 1256 1291 1650 1693 1260 1295 
1654 1697 1299 1264 1303 1658 1662 1701 1268 
1307 1666 1705 1272 1311 1670 1709 1276 1315 
1674 1713 1681 1280 1319 1678 1717 1288 1323 
1682 1725 1292 1327 1686 1729 1296 1331 1690 
1733 1300 1335 1694 1737 1304 1339 1343 1698 
1702 1741 1704 1308 1347 1706 1745 1312 1351 
1710 1749 1316 1355 1714 1753 1284 1721 1320 
1359 1718 1757 1328 1363 1722 1761 1765 1332 
1367 1726 1769 1336 1371 1730 1773 1340 1375 
1734 1777 1344 1379 1383 1738 1742 1781 1348 
1387 1746 1785 1352 1391 1750 1789 1356 1395 
1754 1793 1324 1360 1399 1758 1797 1368 1403 
1404 1408 1762 1802 1805 1364 1372 1407 1412 
1766 1806 1809 1376 1411 1416 1770 1810 1813 
1380 1415 1420 1774 1814 1817 1384 1419 1423 
1424 1778 1782 1818 1821 1822 1388 1427 1428 
1786 1825 1826 1392 1431 1432 1790 1829 1830 
1396 1435 1436 1794 1833 1834 1801 1400 1439 
1440 1798 1837 1838 1443 1448 1841 1842 1845 
1447 1452 1846 1849 1451 1456 1850 1853 1455 
1460 1854 1857 1459 1463 1464 1858 1861 1862 
1467 1468 1865 1866 1471 1472 1869 1870 1475 
1476 1873 1874 1444 1479 1480 1877 1878 1483 
1484 1488 1881 1882 1885 1487 1492 1886 1889 
1491 1496 1890 1893 1495 1500 1894 1897 1499 
1503 1504 1898 1901 1902 1507 1508 1905 1906 
1511 1512 1909 1910 1515 1516 1913 1914 1519 
1520 1917 1918 1523 1528 1922 1925 1921 1527 
1532 1926 1929 1531 1536 1930 1933 1535 1540 
1934 1937 1539 1543 1544 1938 1941 1942 1547 
1548 1945 1946 1551 1552 1949 1950 1555 1556 
1953 1954 1524 1559 1560 1957 1958 1203 1563 
1564 1568 1962 1965 1961 1207 1567 1572 1966 
1969 1211 1613 1571 1576 1970 1973 1215 1617 
1575 1580 1974 1977 1621 1579 1583 1584 1978 
1981 1982 1227 1587 1588 1985 1986 1231 1629 
1591 1592 1989 1990 1633 1595 1596 1993 1994 
1601 1637 1599 1600 1997 1998 1608 1643 2001 
2002 2004 2008 2043 2045 2041 1612 1647 2006 
2012 2047 2049 1616 1651 2010 2016 2051 2053 
1611 2011 2013 1620 1655 2014 2020 2055 2057 
1615 2015 1624 1659 1663 2018 2019 2022 2023 
2024 2059 2061 2063 2021 1628 1667 2025 2026 
2028 2065 2027 2067 1632 1671 2030 2032 2069 
2071 1636 1675 2034 2036 2073 2075 1604 1640 
1679 2037 2038 2039 2040 2077 2079 1639 1648 
1683 2042 2048 2081 2083 2085 1652 1687 2046 
2052 2087 2089 1656 1691 2050 2056 2091 2093 
1660 1695 2054 2060 2095 2097 1699 2058 1664 
1703 2062 2064 2099 2101 2103 1668 1707 2066 
2068 2105 2107 1672 1711 2070 2072 2109 2111 
1676 1715 2074 2076 2113 2115 2044 1644 1680 
1719 2078 2080 2117 2119 1688 1723 2082 2084 
2088 2121 2123 2125 1692 1727 2086 2092 2127 
2129 1696 1731 2090 2096 2131 2133 1700 1735 
2094 2100 2135 2137 1739 1743 2098 2102 2104 
2139 2141 2143 1708 1747 2106 2108 2145 2147 
1712 1751 2110 2112 2149 2151 1716 1755 2114 
2116 2153 2155 1684 1720 1759 2118 2120 2157 
2159 1728 1763 2122 2128 2163 2165 2161 1732 
1767 2126 2132 2167 2169 1736 1771 2130 2136 
2171 2173 1740 1775 2134 2140 2175 2177 1783 
1744 1779 2138 2142 2144 2181 2183 1748 1787 
2146 2148 2185 2187 1752 1791 2150 2152 2189 
2191 1756 1795 2154 2156 2193 2195 1724 2124 
1760 1799 2158 2160 2197 2199 1764 1768 1803 
1804 1808 2162 2168 2202 2203 2205 2208 1772 
1807 1812 2166 2172 2206 2209 2212 2207 1776 
1811 1816 2170 2176 2210 2211 2213 2216 1780 
1815 1820 2174 2180 2214 2215 2217 2220 1784 
1819 1823 1824 2178 2182 2184 2218 2219 2221 
2222 2223 2224 1788 1827 1828 2186 2188 2225 
2226 2227 2228 1792 1831 1832 2190 2192 2229 
2230 2231 2232 1796 1835 1836 2194 2196 2233 
2234 2235 2236 2164 2204 2201 1800 1839 1840 
2198 2200 2237 2238 2239 2240 1843 1848 2242 
2243 2245 2248 1847 1852 2246 2247 2249 2252 
1851 1856 2250 2251 2253 2256 1855 1860 2254 
2255 2257 2260 1859 1863 1864 2258 2259 2261 
2262 2263 2264 1867 1868 2265 2266 2267 2268 
1871 1872 2269 2270 2271 2272 1875 1876 2273 
2274 2275 2276 2244 1844 2241 1879 1880 2277 
2278 2279 2280 1883 1888 2282 2283 2285 2288 
1887 1892 2286 2287 2289 1891 1896 2290 2293 
1895 1900 2294 2295 2297 2300 1899 1903 1904 
2298 2299 2301 2302 2303 2304 1907 1908 2305 
2306 2308 2307 1911 1912 2309 2310 2311 2312 
1915 1916 2313 2314 2315 2316 1884 2284 2281 
1919 1920 2317 2318 2319 2320 1923 1928 2322 
2323 2325 2328 1927 1932 2326 2327 2329 2332 
1931 1936 2330 2331 2333 2336 1935 1940 2334 
2335 2337 2340 1939 1943 1944 2338 2339 2341 
2342 2343 2344 1947 1948 2345 2346 2347 2348 
1951 1952 2349 2350 2351 2352 1955 1956 2353 
2354 2356 1924 2321 2324 1959 1960 2357 2358 
2359 2360 1603 2003 2005 1963 1964 1968 2362 
2363 2365 2368 2364 2009 1607 2007 1967 1972 
2366 2367 2369 2372 1971 1976 2370 2371 2373 
2376 2017 1975 1980 2374 2375 2377 2380 1623 
1619 1979 1983 1984 2378 2379 2381 2382 2383 
2384 1627 1987 1988 2385 2386 2387 2388 2029 
2031 1631 1991 1992 2389 2390 2391 2392 1635 
2033 2035 1995 1996 2393 2394 2395 2396 2361 
1999 2000 2397 2398 2399 2400 2402 2408 2443 
2445 2404 2406 2412 2447 2449 2410 2416 2451 
2453 2413 2414 2415 2420 2455 2457 2417 2418 
2422 2423 2424 2459 2461 2463 2419 2421 2425 
2426 2428 2465 2467 2427 2430 2432 2469 2471 
2434 2436 2473 2475 2441 2437 2438 2440 2477 
2479 2439 2442 2448 2483 2485 2446 2452 2487 
2489 2450 2456 2491 2493 2454 2460 2495 2497 
2458 2462 2464 2499 2501 2503 2466 2468 2505 
2507 2470 2472 2509 2511 2474 2476 2513 2515 
2444 2481 2478 2480 2517 2519 2482 2488 2523 
2525 2486 2492 2527 2529 2490 2496 2531 2533 
2494 2500 2535 2537 2498 2502 2504 2539 2541 
2543 2506 2508 2545 2547 2510 2512 2549 2551 
2514 2516 2553 2555 2484 2521 2518 2520 2557 
2559 2522 2528 2563 2565 2524 2526 2532 2567 
2569 2530 2536 2571 2573 2534 2540 2575 2577 
2179 2538 2542 2544 2579 2581 2583 2546 2548 
2585 2587 2550 2552 2589 2591 2554 2556 2593 
2595 2561 2558 2560 2597 2599 2562 2568 2602 
2603 2605 2608 2564 2566 2572 2606 2607 2609 
2612 2570 2576 2610 2611 2613 2616 2574 2580 
2614 2615 2617 2620 2578 2582 2584 2618 2619 
2621 2622 2623 2624 2586 2588 2625 2626 2627 
2628 2590 2592 2629 2630 2631 2632 2594 2596 
2633 2634 2635 2636 2601 2604 2598 2600 2637 
2638 2639 2640 2641 2642 2643 2645 2648 2646 
2647 2649 2652 2650 2651 2653 2656 2654 2655 
2657 2660 2658 2659 2661 2662 2663 2664 2665 
2666 2667 2668 2669 2670 2671 2672 2673 2674 
2675 2676 2644 2677 2678 2679 2680 2682 2683 
2685 2688 2292 2686 2687 2689 2692 2291 2296 
2690 2691 2693 2696 2694 2695 2697 2700 2698 
2699 2701 2702 2703 2704 2705 2706 2707 2708 
2709 2710 2711 2712 2713 2714 2715 2716 2684 
2681 2717 2718 2719 2720 2721 2722 2723 2725 
2728 2726 2727 2729 2732 2730 2731 2733 2736 
2734 2735 2737 2740 2738 2739 2741 2742 2743 
2744 2745 2746 2747 2748 2749 2750 2751 2752 
2355 2753 2754 2755 2756 2724 2757 2758 2759 
2760 2405 2401 2403 2762 2763 2765 2768 2761 
2407 2409 2766 2767 2769 2772 2411 2770 2771 
2773 2776 2774 2775 2777 2780 2778 2779 2781 
2782 2783 2784 2785 2786 2787 2788 2429 2431 
2789 2790 2791 2792 2433 2435 2793 2794 2795 
2796 2764 2797 2798 2799 2800 2802 2805 2808 
2841 2843 2845 2804 2806 2807 2812 2847 2849 
2810 2811 2813 2816 2851 2853 2814 2820 2855 
2857 2817 2818 2822 2823 2824 2859 2861 2863 
2825 2826 2827 2828 2865 2867 2829 2830 2831 
2832 2869 2871 2834 2836 2873 2875 2833 2835 
2838 2840 2877 2879 2839 2842 2844 2848 2883 
2885 2881 2846 2852 2887 2889 2850 2856 2891 
2893 2854 2860 2895 2897 2858 2862 2864 2899 
2901 2903 2866 2868 2905 2907 2870 2872 2909 
2911 2874 2876 2913 2915 2878 2880 2917 2919 
2882 2888 2921 2923 2925 2884 2886 2892 2927 
2929 2890 2896 2931 2933 2894 2900 2935 2937 
2898 2902 2904 2939 2941 2943 2906 2908 2945 
2947 2910 2912 2949 2951 2914 2916 2953 2955 
2918 2920 2957 2959 2922 2928 2963 2965 2926 
2932 2967 2969 2930 2936 2971 2973 2934 2940 
2975 2977 2938 2942 2944 2979 2981 2983 2946 
2948 2985 2987 2950 2952 2989 2991 2954 2956 
2993 2995 2961 2924 2958 2960 2997 2999 2962 
2968 3001 3002 3003 3005 3008 2966 2972 3006 
3007 3009 3012 2970 2976 3010 3011 3013 3016 
2974 2980 3014 3015 3017 3020 2978 2982 2984 
3018 3019 3021 3022 3023 3024 2986 2988 3025 
3026 3027 3028 2990 2992 3029 3030 3031 3032 
2994 2996 3033 3034 3035 3036 2964 3004 2998 
3000 3037 3038 3039 3040 3042 3043 3045 3048 
3044 3046 3047 3049 3052 3050 3051 3053 3056 
3054 3055 3057 3060 3058 3059 3061 3062 3063 
3064 3065 3066 3067 3068 3069 3070 3071 3072 
3073 3074 3075 3076 3041 3077 3078 3079 3080 
3082 3083 3085 3088 3086 3087 3089 3092 3090 
3091 3093 3096 3094 3095 3097 3100 3098 3099 
3101 3102 3103 3104 3105 3106 3107 3108 3109 
3110 3111 3112 3113 3114 3115 3116 3084 3081 
3117 3118 3119 3120 3122 3123 3125 3128 3124 
3126 3127 3129 3132 3130 3131 3133 3136 3134 
3135 3137 3140 3138 3139 3141 3142 3143 3144 
3145 3146 3147 3148 3149 3150 3151 3152 3153 
3154 3155 3156 3121 3157 3158 3159 3160 2803 
3162 3163 3165 3168 3164 2809 3166 3167 3169 
3172 3170 3171 3173 3176 2815 3174 3175 3177 
3180 2819 2821 3178 3179 3181 3182 3183 3184 
3185 3186 3187 3188 3189 3190 3191 3192 3193 
3194 3195 3196 2801 2837 3161 3197 3198 3199 
3200 3202 3205 3208 3243 3245 3204 3241 3206 
3209 3212 3247 3249 3207 3210 3211 3216 3251 
3253 3213 3214 3220 3255 3257 3218 3222 3223 
3224 3259 3261 3263 3219 3225 3226 3227 3228 
3265 3267 3230 3232 3269 3271 3231 3234 3236 
3273 3275 3233 3237 3238 3240 3277 3279 3242 
3248 3283 3285 3244 3281 3246 3252 3287 3289 
3250 3256 3291 3293 3254 3260 3295 3297 3258 
3262 3264 3299 3301 3303 3266 3268 3305 3307 
3270 3272 3309 3311 3274 3276 3313 3315 3278 
3280 3317 3319 3282 3288 3323 3325 3284 3321 
3286 3292 3327 3329 3290 3296 3331 3333 3294 
3300 3335 3337 3298 3302 3304 3339 3341 3343 
3306 3308 3345 3347 3310 3312 3349 3351 3314 
3316 3353 3355 3318 3320 3357 3359 3322 3328 
3363 3365 3326 3332 3367 3369 3330 3336 3371 
3373 3334 3340 3375 3377 3338 3342 3344 3379 
3381 3383 3346 3348 3385 3387 3386 3350 3352 
3389 3391 3354 3356 3393 3395 3324 3361 3358 
3360 3397 3399 3362 3368 3402 3403 3405 3364 
3404 3408 3366 3372 3406 3407 3409 3412 3370 
3376 3410 3411 3413 3416 3374 3380 3414 3415 
3417 3420 3378 3382 3384 3418 3419 3421 3422 
3423 3424 3388 3425 3426 3427 3428 3390 3392 
3429 3430 3431 3432 3394 3396 3433 3434 3435 
3436 3401 3398 3400 3437 3438 3439 3440 3442 
3443 3445 3448 3446 3447 3449 3452 3450 3451 
3453 3456 3454 3455 3457 3460 3458 3459 3461 
3462 3463 3464 3465 3466 3467 3468 3469 3470 
3471 3472 3473 3474 3475 3476 3441 3444 3477 
3478 3479 3480 3482 3483 3485 3488 3481 3484 
3486 3487 3489 3492 3490 3491 3493 3496 3494 
3495 3497 3500 3498 3499 3501 3502 3503 3504 
3505 3506 3507 3508 3509 3510 3511 3512 3513 
3514 3515 3516 3517 3518 3519 3520 3522 3523 
3525 3528 3526 3527 3529 3532 3530 3531 3533 
3536 3534 3535 3537 3540 3538 3539 3541 3542 
3543 3544 3545 3546 3547 3548 3549 3550 3551 
3552 3553 3554 3555 3556 3521 3524 3557 3558 
3559 3560 3203 3562 3563 3565 3568 3566 3567 
3569 3572 3570 3571 3573 3576 3215 3217 3574 
3575 3577 3580 3221 3578 3579 3581 3582 3583 
3584 3585 3586 3587 3588 3229 3589 3590 3591 
3592 3235 3593 3594 3595 3596 3239 3561 3201 
3564 3597 3598 3599 3600 2 45 5 3602 
3608 3641 3643 3645 41 9 49 6 3606 
3612 3647 3649 3609 10 3610 3616 3651 3653 
13 14 57 3614 3615 3620 3655 3657 22 
61 18 21 3618 3622 3623 3624 3659 3661 
3663 3625 3626 3627 3628 3665 3667 69 3630 
3632 3669 3671 3629 3631 33 34 73 3634 
3636 3673 3675 3633 3604 3638 3640 3677 3679 
3639 3642 3648 3683 3685 3644 3681 46 89 
3646 3652 3687 3689 3650 3656 3691 3693 97 
3654 3660 3695 3697 58 62 101 3658 3662 
3664 3699 3701 3703 66 105 3666 3668 3705 
3707 70 3670 3672 3709 3711 113 3674 3676 
3713 3715 3678 3680 3717 3719 125 3682 3688 
3723 3725 129 3686 3692 3727 3729 133 3690 
3696 3731 3733 3694 3700 3735 3737 141 102 
3698 3702 3704 3739 3741 3743 106 145 3706 
3708 3745 3747 149 3710 3712 3749 3751 153 
3714 3716 3753 3755 121 3684 3721 118 3718 
3720 3757 3759 165 3722 3728 3763 3765 3761 
126 169 3726 3732 3767 3769 3772 3730 3736 
3771 3773 134 177 3734 3740 3775 3777 142 
181 3738 3742 3744 3779 3781 3783 146 3746 
3748 3785 3787 3750 3752 3789 3791 193 3754 
3756 3793 3795 158 3724 3758 3760 3797 3799 
162 201 205 3762 3768 3802 3803 3804 3805 
3808 206 209 3766 3806 3807 3809 3812 210 
213 3770 3776 3810 3811 3813 3816 217 3774 
3780 3815 3817 3820 3814 178 182 218 222 
3778 3782 3784 3818 3819 3821 3822 3823 3824 
225 226 3786 3788 3825 3826 3827 3828 3790 
3792 3829 3830 3831 3832 3794 3796 3833 3834 
3835 3836 198 3764 3801 3798 3800 3837 3838 
3839 3840 242 241 3841 3842 3843 3845 3848 
3844 3846 3847 3849 3852 3850 3851 3853 3856 
257 3854 3855 3857 3860 258 262 3859 261 
3858 3861 3862 3863 3864 266 265 3865 3866 
3867 3868 269 3869 3870 3871 3872 274 3873 
3874 3875 3876 3877 3878 3879 3880 281 282 
3881 3882 3883 3885 3888 3884 286 3886 3887 
3889 3892 290 3890 3891 3893 3896 294 297 
3894 3895 3897 3900 302 301 3898 3899 3901 
3902 3903 3904 3905 3906 3907 3908 309 3909 
3910 3911 3912 3913 3914 3915 3916 318 3917 
3918 3919 3920 325 322 3922 3923 3925 3928 
321 3924 329 3926 3927 3929 3932 330 333 
3930 3931 3933 3936 334 337 3934 3935 3937 
3940 342 3938 3939 3941 3942 3943 3944 3945 
3946 3947 3948 350 3949 3950 3951 3952 353 
3953 3954 3955 3956 357 358 3921 3957 3958 
3959 3960 3603 3605 3962 3963 3965 3968 3961 
366 369 3607 3966 3967 3969 3972 3613 3611 
3970 3971 3973 3976 17 374 3617 377 3974 
3975 3977 3980 378 3621 3619 3978 3979 3981 
3982 3983 3984 385 386 3985 3986 3987 3988 
389 390 29 3989 3990 3991 3992 393 394 
3635 3993 3994 3995 3996 398 3964 3601 3637 
3997 3998 3999 4000 
type 1 4000 int
1 1 1 1 1 1 1 1 1 
1 1 1 1 1 1 1 1 1 
1 1 1 1 1 1 1 1 1 
1 1 1 1 1 1 1 1 1 
1 1 1 1 1 1 1 1 1 
1 1 1 1 1 1 1 1 1 
1 1 1 1 1 1 1 1 1 
1 1 1 1 1 1 1 1 1 
1 1 1 1 1 1 1 1 1 
1 1 1 1 1 1 1 1 1 
1 1 1 1 1 1 1 1 1 
1 1 1 1 1 1 1 1 1 
1 1 1 1 1 1 1 1 1 
1 1 1 1 1 1 1 1 1 
1 1 1 1 1 1 1 1 1 
1 1 1 1 1 1 1 1 1 
1 1 1 1 1 1 1 1 1 
1 1 1 1 1 1 1 1 1 
1 1 1 1 1 1 1 1 1 
1 1 1 1 1 1 1 1 1 
1 1 1 1 1 1 1 1 1 
1 1 1 1 1 1 1 1 1 
1 1 1 1 1 1 1 1 1 
1 1 1 1 1 1 1 1 1 
1 1 1 1 1 1 1 1 1 
1 1 1 1 1 1 1 1 1 
1 1 1 1 1 1 1 1 1 
1 1 1 1 1 1 1 1 1 
1 1 1 1 1 1 1 1 1 
1 1 1 1 1 1 1 1 1 
1 1 1 1 1 1 1 1 1 