# vtk DataFile Version 4.0
Generated by LAMMPS
ASCII
DATASET POLYDATA
POINTS 4000 float
4.02858 -0.170034 3.78729 6.08243 -0.820935 1.76793 3.89881 -2.37443 2.00561 
3.98914 -0.37988 40.8818 5.83282 -2.6651 -0.0854696 8.42765 0.876532 1.79416 
10.0052 -1.39543 1.81976 10.2557 0.480993 -0.323829 8.05313 -1.20599 -0.155832 
8.07587 -1.17765 3.88318 10.3064 0.491018 4.00519 12.376 0.0612336 1.87028 
14.097 -2.082 1.78175 12.1946 -1.76832 3.9007 14.2248 -0.144425 -0.11652 
16.3581 -0.395726 2.02299 18.1512 -2.8645 2.16192 18.3539 -1.0219 4.07278 
20.1353 -3.12248 -0.145441 16.2036 -2.32262 -0.00304124 18.2363 -0.817142 -0.102032 
20.2373 -1.26154 1.89154 24.4101 -2.02246 1.89204 22.5934 0.471949 1.85457 
20.273 0.788223 40.6981 20.2476 -3.33989 4.09893 22.318 -1.52672 -0.256126 
28.2458 -2.75502 1.91467 26.5239 -0.427822 1.88138 28.5838 -0.737171 3.99719 
26.403 -2.3689 3.92543 24.6049 -0.000901819 4.05047 24.5582 0.0245431 -0.25974 
30.4496 -0.997542 1.97287 32.2737 -3.39612 2.03013 32.6449 -1.46344 4.15916 
30.4334 -2.9988 4.04603 32.5215 -1.51646 -0.0971654 36.5436 -0.0235308 1.79312 
34.5794 -1.96424 2.07237 36.5505 -2.07964 3.8654 34.392 43.7234 40.7983 
6.27305 1.12619 40.7205 4.38667 1.85698 1.78676 37.3855 4.00423 1.88252 
4.54814 3.69318 40.6466 6.66491 3.28832 1.98605 6.37242 1.29122 3.98199 
6.90521 5.24813 3.83275 8.78649 4.95077 1.89363 10.6184 2.45436 1.91545 
8.60064 2.73387 3.99291 14.5324 1.86637 2.08659 12.8407 4.19151 1.9242 
12.4691 2.17565 3.96005 12.5429 2.00896 -0.236023 18.4427 1.23077 1.99941 
16.6794 3.46562 2.0217 16.4564 1.24089 -0.0890865 18.7073 3.18146 -0.0512096 
18.9592 5.00034 2.008 18.6558 3.24775 3.91496 20.8186 2.79728 2.04357 
22.9511 4.48444 2.10929 20.9073 4.50577 40.8149 22.7698 2.29786 40.586 
24.7129 2.02694 1.93849 27.0049 3.77501 1.81781 26.6064 1.6562 40.6329 
32.9016 0.443469 2.0043 30.7394 0.823463 3.98216 28.6903 1.33435 1.97083 
30.917 2.90117 1.90103 30.682 0.845966 -0.242866 35.0637 2.33256 2.0278 
33.0273 4.78739 2.02633 4.73966 5.75538 2.05051 37.5177 5.91409 -0.0921616 
3.02618 7.9491 2.10293 5.16064 7.5794 4.02043 4.98315 7.59686 -0.20295 
7.16395 7.35781 1.84788 11.1521 6.50083 2.12527 9.39585 8.99848 2.04626 
7.27446 9.4056 0.169345 9.01824 6.89036 3.85762 9.06555 6.92663 -0.00536686 
15.1177 6.15338 1.9767 13.1606 8.31235 2.1198 12.9949 6.18535 0.044732 
12.8945 6.23079 4.00746 15.1795 7.87775 -0.0701455 17.4134 7.47795 1.92922 
19.6397 8.95722 1.69155 17.0377 5.55738 4.09869 16.9393 5.52045 -0.0554624 
19.438 6.89263 40.679 21.2741 6.64626 2.07288 23.5732 8.44137 1.89578 
23.227 6.25172 4.17997 21.453 8.76449 40.6158 23.1664 6.26453 40.6834 
25.2181 6.00064 1.94392 27.2171 5.84842 4.01704 27.485 7.68343 1.67033 
25.467 7.86152 4.0857 31.3491 7.2187 2.02799 29.3608 5.15184 2.08142 
29.5974 9.64877 1.67413 31.6642 9.3436 -0.187319 31.6783 9.36812 3.86567 
35.3395 6.44913 1.75979 35.8358 8.55184 -0.0483798 33.6922 8.6625 1.97079 
33.3131 6.88118 -0.00422216 33.4989 6.69405 4.10879 35.7407 8.22064 3.98912 
5.32643 9.58634 2.02708 3.64068 12.1191 1.94163 5.79766 13.8891 1.94826 
3.44943 10.121 4.1768 5.54817 11.7456 3.93948 3.46288 9.99833 -0.0713261 
9.58885 10.8976 0.0444476 7.73869 11.3 1.94039 9.92268 12.8702 1.83614 
7.71002 13.4581 3.94415 7.82975 13.245 0.159145 11.7709 10.516 1.80357 
14.0824 12.3566 1.90799 13.669 10.296 3.9481 12.0659 12.5413 -0.127165 
15.7219 9.77903 1.73561 17.9885 11.2574 1.7689 19.7828 10.8751 3.79959 
18.148 13.5605 3.94893 20.0447 13.3549 1.80847 15.9132 11.9541 3.97973 
17.6717 9.37595 40.4727 16.0589 11.6287 40.6237 19.825 11.0975 40.855 
21.7939 10.8555 1.87103 23.8806 10.4979 4.02631 24.0215 12.5073 1.99562 
22.0472 12.7814 3.82816 25.784 10.1568 1.73954 28.0036 11.8748 1.4614 
26.2513 14.2996 1.85075 28.1177 14.3235 40.597 26.1915 12.2466 3.71211 
31.9804 11.3733 1.56314 29.86 11.6955 40.2933 30.2528 13.7121 1.72865 
32.2856 13.3609 40.6137 29.9665 11.5646 3.60289 32.2265 13.1305 3.85533 
36.1787 10.3091 2.14878 34.6269 12.6571 1.86428 36.4164 12.3727 40.7582 
33.9609 10.8038 3.95196 34.1979 10.7184 0.0915795 3.96625 14.16 -0.0993761 
3.75791 13.9548 3.99934 4.27494 16.2886 1.98387 6.61635 17.6675 2.00181 
6.24087 15.6209 3.90514 8.40213 15.0864 1.85253 10.6199 16.969 1.86974 
10.1141 14.686 3.98158 8.52443 17.4779 4.02543 12.4116 14.6423 1.75457 
14.4432 16.4138 1.83066 14.0974 14.3872 3.95865 12.4978 16.7726 3.84896 
16.1529 13.7908 1.91511 18.3039 15.5639 1.67111 22.1902 14.9655 1.88338 
20.7341 17.4798 1.69717 26.4123 16.2263 40.7398 24.3739 16.5408 1.71272 
26.9523 18.2874 1.72012 24.9081 18.6179 40.6289 26.6323 16.2324 3.88987 
28.5614 15.9707 1.84082 30.6123 15.5856 40.5294 32.7424 15.1638 2.02347 
30.8519 17.4765 1.74358 32.9585 17.1855 -0.151836 36.8291 14.4591 1.90028 
34.6316 14.7752 -0.181961 34.9469 16.6855 1.77192 36.7881 16.2788 3.88617 
4.93213 20.0069 1.8819 3.18698 22.4861 1.85587 37.7022 20.3012 -0.306674 
6.77793 19.7507 3.98864 37.2682 18.4517 1.90239 5.0728 22.0267 3.67932 
7.09545 21.6209 1.82358 8.76247 19.3693 1.77844 11.0547 20.9073 1.87887 
10.6764 19.0757 3.94132 8.97254 21.371 3.85952 12.9382 18.6322 1.66361 
15.1989 20.3781 1.96757 14.7288 18.3595 4.08746 13.1736 20.8602 -0.241736 
16.6758 17.8009 2.04729 18.7153 17.6346 3.90565 19.0972 19.8315 1.97577 
19.4235 21.7515 3.95376 22.9885 18.9897 1.83526 21.1125 19.4143 3.84289 
23.2197 21.0346 -0.182722 21.4525 21.5191 1.85974 23.2721 20.8434 3.93477 
25.2163 20.4717 1.74861 27.1915 20.3845 -0.36116 27.4496 22.3857 1.90359 
25.3715 22.9185 40.6542 25.4413 22.9749 3.79184 29.2671 19.8953 1.90659 
31.1858 19.5521 40.5525 31.5404 21.4889 1.76376 29.3589 21.9101 40.4711 
33.2234 19.0904 1.67075 35.3805 18.9978 40.7693 35.6158 20.7013 1.80121 
33.5478 21.1345 40.5986 5.30078 24.2415 1.92944 3.23999 24.4481 40.6786 
3.28501 26.3822 1.9056 5.55921 25.8756 4.02642 3.17938 24.4128 3.94046 
9.461 23.3742 1.93139 7.85128 25.6554 1.99403 7.26716 23.6703 3.86592 
11.3631 22.8386 3.94151 11.6822 25.069 1.85969 13.4487 22.5837 2.10677 
15.6044 24.4489 2.1592 17.3414 22.0945 2.02475 17.748 26.2265 1.76009 
19.4784 23.6105 1.74581 19.6048 25.896 40.6611 23.6582 23.1616 1.85891 
21.7742 25.2367 1.73238 23.7461 25.3422 -0.317477 21.6014 23.4498 -0.236869 
24.0448 27.0918 1.87208 25.8371 24.9279 1.83489 27.7351 24.3387 -0.152341 
28.0498 26.3467 1.8983 26.0981 26.8507 -0.186414 29.8755 23.826 1.81486 
31.7808 23.4067 40.7206 32.0576 25.573 1.87306 29.8804 25.957 40.6648 
33.7705 22.984 1.77462 35.8273 22.7142 -0.316905 33.9734 25.1684 -0.294951 
35.9753 24.8665 1.71421 5.75815 27.9513 1.93345 4.19663 30.4966 1.88624 
3.85669 28.5243 3.90066 6.2691 29.9788 4.03122 9.93885 27.3405 2.03668 
8.11656 29.4941 2.06055 10.0318 29.2502 3.94929 7.79092 27.4565 4.01711 
13.9259 26.5251 1.96339 12.1555 29.0616 1.99432 14.3621 30.9325 1.83462 
11.8572 26.9077 4.01576 15.9476 28.4642 1.96853 16.3091 30.4981 -0.123115 
18.3431 30.3192 1.86972 18.13 28.3763 40.7731 20.1889 27.7646 1.95975 
16.3184 30.4676 3.81945 22.3136 29.4456 1.75353 24.3971 28.9012 40.5552 
22.7091 31.4334 3.85098 26.3733 28.5982 2.04109 28.5334 28.4429 -0.0684642 
24.7513 30.8052 1.87471 26.6948 30.5574 40.7124 28.7026 30.2428 1.9245 
24.2417 29.0275 4.05156 28.3931 28.3141 3.95106 30.4312 27.8008 1.98443 
32.4473 29.7168 2.00675 32.3568 27.4719 4.13343 36.1621 26.8587 40.7982 
34.1963 27.2974 1.95704 36.4756 28.9272 1.87868 36.3364 26.6765 3.84304 
34.527 29.1988 40.8211 36.8501 30.854 40.7792 6.56739 31.9682 2.00819 
4.73632 34.5174 1.96152 4.43975 32.4087 3.95494 10.3269 31.3776 1.87107 
8.64115 33.886 1.93842 8.62681 31.7457 3.81585 10.9693 35.598 1.97685 
10.6051 33.5143 3.89355 12.6525 33.1311 1.8684 14.6312 32.8828 40.8111 
14.9133 34.9121 1.86748 12.8021 35.2691 -0.250971 12.7978 35.4581 3.80114 
16.6565 32.5097 2.0003 18.8174 34.1561 2.07453 16.8475 34.6329 3.74429 
18.6205 32.2128 4.01372 22.4853 31.4572 40.3764 20.5307 31.7812 1.76615 
23.0212 33.4414 1.87168 20.7842 33.7941 40.7831 20.9698 33.5877 4.04888 
23.2268 35.3188 3.92332 26.8934 32.5428 1.90964 24.8449 33.0064 -0.193977 
25.1264 35.1221 1.92387 27.0638 34.5959 0.0335948 28.7503 32.3216 -0.323954 
29.0506 34.3548 1.86842 30.791 32.1611 1.79776 31.058 33.9472 40.4924 
32.7415 31.6074 -0.213609 28.9779 32.1329 3.91208 31.0144 33.903 4.00853 
33.0475 33.7598 1.84893 34.7933 31.375 1.91785 37.2192 32.8509 1.88701 
35.0692 33.1871 3.87543 7.13186 36.1815 1.94749 5.40249 38.5785 1.91714 
5.01005 36.561 3.97198 9.28859 38.3341 1.79374 9.51492 40.1471 4.28678 
9.4164 40.3051 40.5435 11.2291 37.7139 -0.0098447 8.98019 35.9178 4.14158 
11.4653 39.9282 1.71788 13.2369 37.5399 1.95862 15.5819 38.9502 1.6735 
13.5266 39.4722 40.6419 13.5779 39.3499 3.95176 15.3123 37.0429 3.78747 
17.3514 36.5966 1.81818 19.3082 38.2344 2.00403 17.5961 38.5039 3.92023 
19.2789 36.1572 3.89481 17.4773 38.5226 -0.139849 19.3039 36.2994 0.0383407 
21.2263 35.7617 1.90678 23.5175 37.3636 1.83876 21.7983 39.7102 1.97113 
21.4476 37.843 -0.281582 23.6745 39.5701 40.42 27.2448 36.7635 1.89547 
27.6829 38.7129 -0.202394 25.585 39.1061 1.75485 25.4928 37.0081 40.5734 
25.5137 36.9579 3.90564 27.8908 38.7008 3.97553 31.4929 35.9895 1.99242 
29.698 38.4758 1.88597 29.5759 36.4839 -0.14377 29.5184 36.3626 4.06764 
31.6209 38.0781 3.95971 3.04598 36.8411 1.86073 33.5963 37.6246 2.07752 
35.4678 35.3893 1.74693 33.5337 35.4356 3.96898 35.6713 37.2646 3.89752 
5.7016 42.6211 1.93159 3.47526 40.8385 1.95676 3.71404 42.9011 3.91147 
7.53111 40.6194 1.96926 9.76746 42.1641 1.91749 7.81714 -3.12294 1.77199 
7.68667 42.6016 4.03865 7.57638 42.477 -0.25399 9.80309 -3.38305 -0.295298 
9.98678 -3.20982 3.98316 13.7897 41.3302 1.94875 11.8951 43.8184 1.92325 
14.0879 43.1955 4.07318 13.9422 43.4619 -0.241881 11.643 41.9155 -0.220203 
15.8505 41.0505 3.96216 17.696 40.5524 1.85249 15.9792 42.8658 1.86895 
19.9039 42.1796 2.08033 18.144 42.3847 4.00327 17.9858 42.5741 0.0164507 
19.6972 40.0419 0.104578 19.78 40.1396 4.09032 22.1193 43.9157 2.00812 
[...]
POINT_DATA 4000
FIELD FieldData 6
id 1 4000 int
405 7 3 2 5 12 11 10 9 
409 410 16 15 413 14 20 19 418 
21 17 18 24 28 63 61 421 22 
32 67 469 426 465 65 36 35 434 
430 34 4 40 401 37 6 8 43 
45 47 406 446 52 51 449 55 56 
453 53 59 60 57 58 99 458 64 
103 101 62 68 72 69 75 473 71 
76 73 79 80 48 42 83 485 85 
87 91 92 86 489 89 95 96 93 
493 94 100 139 497 97 98 104 108 
502 102 105 107 509 112 506 115 111 
116 114 517 44 81 119 117 478 481 
88 123 128 482 525 82 129 127 132 
526 126 131 136 533 130 135 140 538 
577 144 534 137 134 141 143 545 148 
542 147 151 152 150 549 120 153 155 
157 514 557 84 159 121 518 118 122 
522 163 168 565 167 172 569 566 171 
176 573 570 175 179 183 184 189 187 
191 186 550 156 154 160 195 197 124 
158 199 561 203 204 201 605 164 602 
208 207 212 609 606 211 215 613 213 
180 578 219 621 188 582 225 223 586 
192 190 231 229 629 196 194 235 233 
200 198 239 237 243 241 244 642 641 
247 248 645 649 251 216 255 220 259 
224 261 227 228 226 222 267 232 230 
271 269 236 234 275 273 240 238 277 
279 283 284 681 682 252 287 689 685 
256 291 295 650 260 297 264 258 263 
658 268 266 705 272 270 307 309 311 
666 670 276 315 674 278 280 319 678 
317 318 288 323 721 292 327 686 331 
690 296 294 300 333 694 299 304 698 
701 305 303 308 302 702 745 312 306 
347 349 310 351 316 353 314 710 753 
355 320 359 757 328 363 722 332 730 
369 330 729 336 335 340 334 734 737 
339 344 738 741 338 341 343 348 383 
342 385 352 389 387 346 746 789 356 
391 350 750 793 324 395 360 754 797 
368 364 762 367 371 372 769 366 370 
770 375 376 774 374 373 777 379 380 
384 778 378 381 781 23 388 382 782 
425 27 392 386 429 786 31 396 790 
433 394 399 794 39 400 766 407 768 
805 1166 412 411 810 809 414 416 415 
814 813 417 420 419 817 821 461 422 
424 463 822 428 432 467 869 865 826 
471 436 830 437 403 440 438 439 445 
402 806 408 443 447 845 846 450 451 
849 452 454 455 456 853 854 457 459 
460 499 857 462 501 464 503 861 505 
466 468 507 905 866 470 474 472 475 
476 477 441 404 479 841 448 442 483 
488 885 842 486 487 492 886 491 495 
490 890 494 496 894 498 897 500 898 
539 541 941 504 543 510 508 512 511 
513 480 515 444 519 878 882 523 925 
528 529 527 532 926 929 535 530 531 
536 933 930 537 937 540 579 544 548 
516 547 551 953 553 520 555 957 484 
918 521 559 921 922 562 563 965 568 
962 567 572 969 966 571 576 973 970 
575 574 580 581 585 583 584 546 552 
589 591 950 989 593 554 556 560 595 
954 993 597 558 524 599 958 603 601 
1005 1002 1001 608 607 612 1006 1009 610 
611 1010 616 1013 617 615 619 620 588 
587 986 592 590 631 990 1029 594 596 
633 635 994 1033 598 564 600 637 639 
604 643 644 1041 1042 646 647 648 1045 
1049 614 653 652 651 655 618 623 657 
624 1022 622 627 625 628 626 1025 667 
1026 630 632 1030 669 671 1069 634 636 
675 673 1034 1073 638 640 677 679 1038 
1077 683 684 1081 1082 687 688 1085 691 
654 693 656 660 661 659 664 1061 1058 
665 1065 662 663 668 1062 1066 672 707 
1109 709 1070 676 715 711 713 1113 1074 
680 717 719 1078 718 725 723 724 1121 
692 727 696 697 695 700 1097 1094 699 
704 1098 1101 703 708 1102 1145 1105 706 
712 1106 749 747 1149 1110 716 751 714 
1153 1114 759 755 720 1157 1118 1158 761 
728 799 763 726 733 731 1130 1133 735 
736 1137 740 1134 739 744 1141 1138 742 
785 743 748 1142 1185 752 1146 787 1189 
756 791 1150 1193 1154 758 795 760 765 
767 764 732 772 1170 1169 771 773 775 
776 1174 1173 1177 779 780 1178 784 1181 
783 423 788 1182 825 427 792 829 1186 
431 796 1190 833 798 800 435 1194 803 
807 1206 812 811 1210 1209 816 815 1213 
1214 818 820 819 1218 1217 1221 824 828 
863 1222 1261 832 867 1265 1226 871 836 
873 1230 801 834 840 1237 808 843 847 
1246 1245 850 851 852 1249 1250 855 856 
1254 858 859 860 1257 901 862 864 903 
1262 909 868 872 907 1266 877 875 870 
876 804 838 802 879 848 1242 883 888 
1285 889 887 891 892 1289 1286 893 1290 
1293 895 896 1294 899 1297 900 939 902 
904 943 906 945 908 912 917 880 913 
911 874 915 881 844 919 1281 923 928 
1325 1322 1282 927 932 1326 1329 935 931 
1330 936 1333 934 977 938 940 979 1337 
1334 1377 942 944 948 981 947 910 949 
951 914 916 920 955 1357 884 1318 959 
1321 963 1365 968 1362 1369 967 972 1366 
971 976 1370 1373 974 975 980 1017 1015 
978 946 983 985 987 984 952 991 956 
960 1354 995 1393 997 924 961 1361 999 
1358 1003 1401 1405 1402 1008 1007 1012 1406 
1409 1011 1016 1410 1019 1014 1021 1020 1417 
982 988 1023 1027 992 1390 1429 1031 996 
1035 1394 1433 998 1037 964 1000 1039 1398 
1437 1004 1043 1044 1441 1442 1046 1047 1048 
1445 1449 1446 1052 1053 1055 1051 1050 1057 
1018 1024 1059 1028 1426 1067 1465 1032 1071 
1430 1469 1036 1075 1473 1434 1040 1079 1438 
1477 1083 1084 1481 1086 1087 1088 1485 1489 
1089 1054 1056 1091 1450 1060 1064 1063 1068 
1462 1505 1466 1072 1470 1107 1509 1111 1076 
1115 1513 1474 1080 1117 1119 1517 1122 1123 
1124 1125 1092 1127 1090 1093 1095 1096 1100 
1099 1498 1501 1104 1103 1108 1502 1545 1506 
1112 1147 1549 1510 1151 1116 1553 1155 1514 
1120 1159 1160 1557 1161 1128 1163 1126 1198 
1129 1131 1132 1136 1135 1534 1140 1537 1533 
1139 1144 1538 1541 1143 1148 1542 1585 1152 
1589 1187 1546 1550 1156 1191 1593 1197 1195 
1199 1200 1162 1165 1168 1164 1167 1171 1172 
1570 1573 1175 1176 1574 1180 1179 1184 1581 
1578 1183 823 1188 1225 1582 827 1192 1586 
1229 831 1196 1233 1590 839 835 837 1202 
1205 1208 1204 1212 1610 1207 1211 1216 1215 
1614 1613 1220 1219 1618 1617 1224 1228 1263 
1665 1269 1267 1232 1630 1234 1236 1235 1634 
1238 1240 1279 1277 1247 1243 1646 1649 1251 
1252 1650 1253 1653 1255 1256 1258 1259 1260 
1658 1299 1657 1301 1264 1303 1701 1305 1271 
1268 1272 1270 1669 1274 1273 1275 1276 1315 
1241 1244 1280 1278 1248 1283 1685 1291 1287 
1689 1292 1686 1690 1295 1296 1694 1298 1697 
1300 1339 1302 1341 1304 1308 1309 1307 1306 
1312 1311 1313 1310 1316 1317 1319 1320 1288 
1682 1323 1328 1725 1729 1327 1332 1726 1335 
1331 1730 1336 1733 1734 1338 1340 1344 1345 
1343 1342 1348 1347 1349 1346 1352 1314 1351 
1355 1353 1284 1721 1359 1363 1368 1762 1722 
1765 1367 1769 1372 1766 1371 1376 1773 1770 
1374 1375 1379 1378 1778 1381 1384 1383 1385 
1382 1388 1350 1387 1391 1389 1356 1360 1395 
1797 1397 1324 1758 1399 1761 1403 1805 1404 
1802 1408 1407 1412 1806 1809 1413 1411 1415 
1414 1813 1380 1419 1418 1420 1421 1423 1425 
1424 1386 1392 1427 1431 1396 1794 1435 1833 
1364 1801 1400 1798 1439 1837 1443 1444 1842 
1451 1447 1448 1845 1810 1849 1453 1416 1455 
1853 1854 1457 1459 1461 1454 1460 1857 1422 
1428 1463 1467 1432 1830 1471 1869 1436 1475 
1873 1834 1440 1479 1838 1877 1482 1483 1484 
1881 1885 1452 1487 1846 1493 1491 1456 1850 
1893 1495 1458 1464 1499 1497 1894 1468 1905 
1901 1866 1472 1870 1507 1511 1909 1476 1874 
1913 1515 1478 1480 1519 1878 1518 1918 1521 
1488 1525 1523 1486 1492 1529 1527 1494 1490 
1496 1531 1535 1500 1504 1503 1508 1902 1945 
1906 1512 1547 1949 1910 1516 1555 1914 1551 
1953 1520 1559 1558 1560 1957 1565 1522 1528 
1563 1530 1526 1532 1567 1536 1540 1539 1941 
1544 1938 1543 1548 1942 1985 1583 1946 1552 
1587 1989 1950 1556 1591 1561 1554 1597 1524 
1595 1599 1958 1201 1203 1562 1568 1564 1566 
1569 1571 1572 1970 1577 1575 1576 1974 1977 
1580 1579 1978 1584 1981 1621 1223 1588 1625 
1227 1592 1629 1231 1596 1994 1239 1594 1598 
1600 1998 1641 1602 1604 1643 1606 1609 1608 
1612 2045 2006 1616 2014 1615 2010 2017 1620 
1619 2018 1659 1661 1622 1624 1628 1663 1626 
1632 1631 2030 1636 1633 1635 1677 1638 1640 
1679 1637 1642 1645 1648 1644 1647 1651 1652 
2050 1654 1655 1656 2053 2054 1660 1699 1662 
1664 1668 1667 1666 1671 1672 1670 2070 2069 
1673 1675 1674 1676 1715 2073 1717 1678 1680 
1719 1683 1688 1687 2089 1692 2086 1691 2090 
1693 1695 1696 2093 1698 1700 1704 1737 2097 
1705 1702 1703 1708 1709 1707 1706 1712 2109 
1713 1711 1710 1716 1753 1714 1681 1684 1720 
1755 1718 1723 2125 1728 2122 2129 1727 1732 
2126 1735 1731 2133 1736 2130 2137 1741 1739 
1744 1738 2138 1745 1743 1742 1748 1749 1747 
1746 1752 1751 1750 1756 1754 1759 1757 1760 
2165 1763 1768 2162 1767 2169 1772 2166 1771 
1775 2134 2173 1740 1779 1777 2181 2177 2178 
1781 1783 1785 1782 1784 1788 1789 1787 1786 
1792 1791 1793 1795 1796 1724 1799 2161 2205 
1803 1808 1804 2202 2201 1807 1811 2170 1776 
1774 1815 2213 2174 1817 1780 1819 1818 1820 
2218 2217 1821 1823 1822 1824 1825 1790 1827 
1828 1829 1831 1835 1764 1800 2198 2237 1839 
1841 1843 1844 2241 2206 1812 1847 1851 2210 
2249 1814 1816 1855 2214 2253 1858 1859 1860 
2257 1861 1863 1865 1864 2261 1826 1832 1871 
1867 1836 2234 1875 2273 1840 2238 2277 1879 
2278 1848 1883 2285 1852 1889 1887 2246 2250 
1856 1891 1895 1896 1897 1899 1900 1862 1868 
1903 2301 1872 2270 1907 2309 1911 2266 1876 
2274 1915 2313 1917 1880 1919 2317 1882 1888 
1923 1925 2325 1929 1886 1892 1927 2329 2286 
1890 1931 1933 1936 1898 1935 1937 1939 1904 
1908 1943 2345 1912 2306 1947 2349 2310 1916 
1955 1951 2314 2353 1884 1920 1921 1959 2321 
1922 1928 1963 1965 1926 1932 1969 1967 1934 
1930 1971 1973 1975 2373 2370 1940 1944 2381 
1948 2342 1983 1952 2346 1987 1993 1954 1956 
1991 1960 2350 2357 1961 1924 1999 2358 1962 
1605 1603 1968 1964 1601 2362 2005 1611 1966 
1607 1972 2366 2009 1976 1980 1979 1984 2378 
2021 1982 1623 1988 2382 2025 1986 1627 1992 
1990 1995 1996 1639 1997 2000 2398 2397 2041 
2002 2043 2004 2008 2047 2445 2406 2016 2051 
2449 2020 2059 2061 2022 2024 2028 2027 2422 
2026 2029 2032 2031 2429 2430 2033 2034 2036 
2035 2038 2077 2040 2079 2042 2044 2083 2081 
2049 2046 2048 2052 2485 2055 2056 2454 2057 
2058 2060 2064 2065 2062 2063 2068 2066 2071 
2067 2072 2075 2074 2076 2115 2078 2117 2080 
2119 2082 2085 2088 2521 2084 2525 2091 2087 
2092 2094 2095 2096 2101 2098 2458 2099 2104 
2105 2102 2103 2108 2106 2107 2111 2112 2114 
2113 2110 2116 2153 2155 2118 2120 2157 2159 
2123 2128 2124 2121 2522 2127 2131 2132 2526 
2100 2135 2537 2141 2139 2144 2538 2541 2145 
2142 2143 2148 2149 2146 2147 2152 2150 2151 
2156 2193 2191 2158 2154 2160 2554 2597 2195 
2163 2168 2565 2167 2171 2569 2136 2175 2140 
2179 2577 2578 2184 2185 2183 2182 2188 2189 
2187 2186 2192 2190 2196 2231 2194 2633 2199 
2197 2200 2598 2207 2203 2566 2605 2172 2209 
2211 2570 2609 2176 2215 2613 2180 2219 2617 
2221 2222 2223 2224 2225 2228 2227 2229 2226 
2232 2233 2235 2230 2236 2630 2204 2164 2239 
2637 2208 2245 2243 2602 2606 2212 2610 2251 
2247 2254 2216 2255 2614 2653 2654 2258 2220 
2259 2260 2263 2264 2262 2661 2265 2267 2268 
2269 2272 2666 2271 2275 2673 2670 2240 2279 
2638 2677 2242 2248 2283 2685 2289 2252 2287 
2646 2650 2689 2293 2291 2256 2693 2296 2294 
2295 2297 2299 2298 2300 2303 2305 2304 2701 
2311 2307 2706 2276 2713 2315 2674 2244 2280 
2281 2681 2282 2288 2323 2682 2292 2327 2729 
2290 2333 2331 2336 2330 2733 2335 2337 2334 
2340 2734 2339 2302 2308 2341 2343 2745 2312 
2347 2316 2320 2351 2714 2318 2284 2319 2718 
2365 2322 2328 2363 2361 2326 2332 2369 2367 
2726 2769 2371 2773 2376 2338 2377 2375 2379 
2777 2774 2385 2344 2348 2785 2383 2781 2742 
2389 2352 2387 2750 2354 2355 2356 2753 2754 
2757 2324 2359 2360 2399 2001 2003 2368 2364 
2012 2007 2372 2409 2405 2766 2013 2015 2374 
2011 2410 2413 2019 2380 2384 2417 2023 2388 
2786 2386 2390 2392 2391 2789 2393 2394 2395 
2396 2794 2037 2797 2039 2400 2437 2402 2441 
2404 2443 2841 2802 2408 2447 2806 2849 2414 
2451 2452 2453 2418 2420 2424 2423 2419 3182 
2425 2426 2428 2825 2427 2432 2431 2434 2433 
2436 2435 2477 2438 2440 2479 2481 2442 2444 
2881 2483 2446 2448 2885 2487 2846 2489 2450 
2455 2456 2461 2457 2459 2464 2465 2462 2463 
2468 2469 2470 2466 2467 2471 2472 2473 2474 
2475 2476 2515 2517 2478 2480 2519 2917 2482 
2523 2484 2882 2490 2486 2488 2492 2491 2493 
2497 2460 2495 2501 2498 2499 2504 2502 2505 
2503 2508 2509 2506 2507 2512 2510 2513 2514 
2511 2516 2914 2553 2953 2555 2518 2520 2918 
2557 2559 2528 2524 2558 2599 2958 2529 2527 
2531 2533 2494 2496 2500 2535 2894 2539 2941 
2544 2898 2545 2542 2543 2548 2546 2549 2547 
2552 2593 2550 2551 2556 2950 2993 2595 2560 
2954 2997 2561 2563 2567 2961 2530 2532 2571 
2930 2534 2573 2536 2575 2581 2540 2977 2579 
2981 2580 2978 2585 2582 2584 2583 2985 2588 
2629 2589 2587 2586 2592 2590 2591 2596 3033 
2990 2631 2594 2994 2635 2600 2562 2568 2603 
2607 2966 2572 2611 2970 3009 2574 2576 2615 
3013 2618 2619 3017 2620 2621 2623 2624 2622 
3021 3022 2625 2626 3025 2628 2627 3029 2632 
3026 2634 2636 2669 3069 2671 3030 2601 2564 
2639 2645 2608 2643 3006 3045 3002 2649 2612 
2651 2647 3010 2616 3014 3053 2655 3054 2658 
2657 2659 2660 3057 3058 2663 2664 2662 3062 
2667 2665 2668 3066 3065 2675 2672 2604 2640 
2642 2648 2683 3085 2652 2687 3089 3046 2656 
2691 2695 2696 3093 2694 2697 2699 2698 2700 
3094 3098 2703 2704 2702 3101 3102 2705 2709 
2707 2711 2708 2676 2680 2641 2678 2679 2644 
2725 2688 2723 3082 2686 2692 2727 3086 2690 
2731 3090 2736 2735 2737 3134 2740 3137 2739 
2738 2741 2743 2744 3138 2749 2710 2712 2747 
2716 2717 2715 2720 3117 2719 2721 2684 3121 
2722 2765 2728 2763 3122 2732 2767 3126 3169 
2730 2771 3173 2776 3130 2770 3170 2775 3177 
2780 3174 2779 2748 2783 2746 2752 2751 2755 
2756 2759 2761 2724 2758 2760 2799 2762 2401 
2403 2764 2768 2407 2772 3166 2805 2809 2412 
2810 2416 2411 2813 2778 2415 2784 2421 2782 
2788 2787 3186 2790 2792 2791 3189 3190 2793 
2795 2796 3193 2798 2439 2800 2804 2843 3241 
3202 2845 2808 3245 2812 3206 2847 2853 2851 
2816 2821 2814 2820 2819 2822 2826 2828 2823 
2827 2830 2829 2832 2831 3230 2834 2833 2836 
2875 2835 3234 2877 2838 2840 2879 3238 2842 
2844 2883 3242 3281 2848 2852 2887 2893 2850 
2857 2856 2855 2861 2824 2818 2859 2866 2862 
2865 2863 2868 3262 2869 2870 2871 2867 2872 
3270 2873 2874 2876 3274 2915 2878 2880 2919 
3278 3317 2921 2884 2923 2888 2889 2886 2891 
2892 2890 2897 2854 2860 2895 3297 2858 2901 
3258 2864 2899 2904 2905 2902 2903 3302 2908 
2909 2906 2907 2912 2910 2913 2911 3313 2916 
2957 3314 2955 2959 2920 3318 3357 2925 2922 
2928 2924 2926 2929 2927 2931 2896 3329 2933 
2937 2900 2935 3337 3333 3294 2938 3298 2939 
2944 2945 2942 2943 2948 2949 2946 2947 2952 
3353 2951 2956 3393 2995 2960 3354 2965 2963 
2967 2969 2932 2971 3330 2934 2973 2936 3334 
2975 2940 2979 3377 2982 2983 3385 2984 2988 
3382 2989 2986 3389 2987 2992 3386 2991 2996 
3390 3031 2999 2998 3000 3005 2968 3003 3007 
3366 2972 3011 3370 2974 2976 3015 3374 3414 
3018 2980 3019 3417 3020 3418 3023 3421 3024 
3422 3425 3027 3429 3028 3032 3035 3036 2962 
2964 3037 3039 3034 3008 3445 3043 3406 3049 
3012 3410 3051 3047 3449 3016 3055 3453 3454 
3059 3457 3060 3458 3061 3063 3461 3064 3462 
3465 3067 3068 3072 3071 3073 3075 3070 3001 
3038 3004 3040 3042 3048 3442 3083 3485 3052 
3087 3446 3050 3056 3091 3095 3450 3493 3096 
3097 3099 3494 3100 3498 3103 3501 3104 3105 
3109 3107 3111 3108 3106 3074 3076 3077 3080 
3041 3078 3081 3079 3044 3441 3481 3478 3125 
3088 3123 3525 3482 3129 3092 3486 3127 3529 
3133 3131 3533 3136 3530 3490 3135 3534 3140 
3139 3141 3143 3142 3144 3110 3112 3145 3113 
3147 3114 3115 3116 3120 3517 3118 3119 3084 
3518 3165 3128 3522 3163 3565 3132 3167 3569 
3526 3573 3171 3176 3570 3175 3179 3538 3181 
3146 3148 3149 3150 3152 3151 3157 3153 3154 
3155 3156 3197 3159 3160 3161 3124 3561 3158 
3558 3199 3557 2801 3162 2803 3168 3164 3201 
3205 2807 3209 3172 3566 2811 2815 2817 3178 
3180 3184 3185 3183 3188 3187 3192 3191 3194 
3195 3196 2837 3198 2839 3200 3237 3598 3602 
3204 3641 3243 3249 3208 3212 3247 3610 3210 
3214 3216 3215 3613 3221 3217 3218 3220 3219 
3225 3226 3222 3224 3228 3227 3229 3232 3231 
3233 3236 3235 3634 3277 3240 3638 3677 3279 
3637 3248 3244 3285 3246 3251 3252 3250 3254 
3255 3253 3256 3257 3261 3259 3260 3265 3263 
3268 3269 3266 3267 3272 3271 3273 3275 3276 
3674 3280 3319 3678 3717 3283 3282 3288 3284 
3286 3287 3289 3292 3291 3686 3290 3293 3295 
3296 3694 3301 3264 3299 3304 3305 3303 3308 
3309 3306 3307 3312 3709 3706 3310 3311 3713 
3315 3316 3714 3355 3320 3325 3321 3323 3328 
3326 3327 3332 3300 3331 3335 3730 3341 3339 
3344 3345 3342 3343 3745 3348 3742 3349 3346 
3749 3347 3352 3350 3351 3753 3356 3750 3359 
3358 3360 3322 3362 3365 3363 3368 3765 3762 
3367 3371 3369 3373 3336 3734 3375 3338 3378 
3738 3340 3379 3777 3381 3383 3785 3781 3384 
3782 3388 3387 3789 3392 3786 3391 3395 3396 
3394 3324 3397 3361 3399 3405 3403 3407 3802 
3805 3409 3372 3770 3411 3413 3376 3415 3813 
3380 3778 3419 3420 3818 3817 3423 3821 3424 
3822 3426 3825 3427 3428 3432 3433 3431 3430 
3435 3400 3364 3398 3437 3401 3439 3402 3408 
3443 3806 3845 3412 3451 3447 3849 3814 3416 
3455 3853 3459 3857 3460 3858 3861 3463 3464 
3468 3469 3467 3471 3466 3434 3436 3475 3473 
3404 3438 3440 3477 3479 3877 3448 3842 3483 
3489 3452 3487 3889 3846 3456 3495 3491 3854 
3850 3893 3497 3499 3897 3500 3894 3503 3505 
3470 3472 3509 3511 3507 3513 3474 3476 3515 
3874 3913 3444 3480 3917 3488 3523 3925 3882 
3492 3527 3929 3886 3531 3496 3933 3890 3537 
3539 3535 3502 3541 3504 3508 3545 3506 3549 
3512 3547 3510 3514 3551 3516 3520 3521 3484 
3519 3559 3921 3528 3965 3563 3922 3961 3532 
3926 3567 3969 3536 3571 3575 3930 3540 3577 
3544 3542 3543 3548 3585 3583 3550 3546 3552 
3587 3554 3553 3555 3556 3957 3954 3524 3560 
3958 3562 3601 3203 3564 3962 3568 3605 3207 
3572 3966 3574 3213 3211 3576 3581 3579 3578 
3580 3584 3586 3582 3223 3588 3590 3589 3591 
3592 3990 3594 3593 3595 3596 3993 3597 3599 
3239 3600 3998 3645 3608 3604 3606 3612 3611 
3614 13 3616 3615 3618 3617 3620 3619 3621 
3661 3622 3624 3628 3663 3626 26 30 3630 
3629 3632 3631 3633 33 3636 3635 38 77 
3640 3679 41 3642 3646 3643 3647 46 49 
3650 50 3649 3652 3651 3654 3653 54 3655 
3656 3658 3657 3659 3660 3699 3662 3665 3664 
3668 66 3669 3666 3667 3672 3671 3673 3670 
3675 70 74 3676 3715 78 3644 3680 3648 
3681 3685 3683 3689 3690 3687 3692 3691 3693 
90 3695 3696 3701 3697 3700 3704 3705 3702 
3703 3708 109 3707 106 3712 3710 113 3711 
110 3716 3718 3719 3720 3682 3725 3688 125 
3723 3728 3726 3729 3727 3732 133 3733 3735 
3731 3736 3698 3737 3741 3739 3744 145 3743 
142 3748 3746 149 3747 146 3752 3754 3751 
3755 3756 3721 3757 3684 3759 165 3722 3763 
3768 3769 169 166 3766 3767 3772 173 170 
3773 3771 3775 138 3740 177 178 3779 185 
181 3783 182 3784 3788 3787 3792 193 3793 
3791 3760 3790 3795 3797 161 3758 3724 3761 
3799 162 205 202 3803 3808 3809 209 206 
3807 3811 174 3774 3776 3815 3780 217 3819 
218 3820 221 3823 3824 3829 3827 3826 3831 
3794 3796 3833 3835 3800 3764 3798 3801 3837 
3839 3841 3804 242 3843 3844 3810 245 249 
3812 210 3851 3847 214 3816 3855 253 257 
3859 3860 3828 3865 3863 3867 3830 3832 3869 
3871 3834 3836 3873 3875 3838 3840 3879 3885 
281 3848 285 3883 289 246 3852 3887 250 
254 293 3856 3891 3895 3899 3864 265 262 
3862 3901 3868 3866 3870 3872 3907 3909 3911 
274 313 3876 3915 3878 3881 3880 3919 282 
3888 325 3923 329 286 3892 3927 3896 3931 
290 3935 301 298 3898 3937 3900 3904 345 
3905 3902 3903 3908 3945 3949 3906 3912 3947 
3910 3914 3953 3916 3951 3955 357 3884 3918 
3920 321 365 322 3928 3963 361 326 3932 
3967 337 3934 3973 3936 3971 3940 3938 3939 
3944 3941 3943 3985 3942 3948 3946 3989 3952 
3987 393 3950 3956 3991 354 3959 358 3924 
3960 3603 1 362 3964 3968 3609 3607 3972 
377 3970 3975 3976 3974 3977 3978 3981 3979 
3980 3984 25 3983 3625 3982 3623 3988 29 
3986 3627 3992 390 3994 3995 3996 3997 397 
3999 3639 398 4000 
type 1 4000 int
1 1 1 1 1 1 1 1 1 
1 1 1 1 1 1 1 1 1 
1 1 1 1 1 1 1 1 1 
1 1 1 1 1 1 1 1 1 
1 1 1 1 1 1 1 1 1 
1 1 1 1 1 1 1 1 1 
1 1 1 1 1 1 1 1 1 
1 1 1 1 1 1 1 1 1 
1 1 1 1 1 1 1 1 1 
1 1 1 1 1 1 1 1 1 
1 1 1 1 1 1 1 1 1 
1 1 1 1 1 1 1 1 1 
1 1 1 1 1 1 1 1 1 
1 1 1 1 1 1 1 1 1 
1 1 1 1 1 1 1 1 1 
1 1 1 1 1 1 1 1 1 
1 1 1 1 1 1 1 1 1 
1 1 1 1 1 1 1 1 1 
1 1 1 1 1 1 1 1 1 
1 1 1 1 1 1 1 1 1 
1 1 1 1 1 1 1 1 1 
1 1 1 1 1 1 1 1 1 
1 1 1 1 1 1 1 1 1 
1 1 1 1 1 1 1 1 1 
1 1 1 1 1 1 1 1 1 
1 1 1 1 1 1 1 1 1 
1 1 1 1 1 1 1 1 1 
1 1 1 1 1 1 1 1 1 
1 1 1 1 1 1 1 1 1 
1 1 1 1 1 1 1 1 1 
1 1 1 1 1 1 1 1 1 