# vtk DataFile Version 4.0
Generated by LAMMPS
ASCII
DATASET POLYDATA
POINTS 4000 float
5.54414 1.07521 1.00478 3.98691 41.638 0.737864 3.6874 1.08635 3.16231 
2.10054 -1.14394 2.78331 9.20739 1.0344 0.96486 7.33143 3.23122 1.13136 
11.1752 -0.985485 0.761169 7.57901 -1.01401 1.10918 7.5968 1.09822 3.05812 
9.3644 3.30511 3.17421 12.931 1.03584 1.01416 14.7032 -1.26116 0.871606 
14.6918 1.01782 3.2224 12.9003 41.7677 41.4713 16.4247 0.904127 1.16002 
20.1799 1.11408 0.797739 17.9808 0.914265 41.7326 18.3553 41.9633 1.02425 
18.4312 0.991345 3.11005 23.8173 1.09975 0.868829 21.9092 1.02243 -1.215 
22.1316 3.19279 0.758176 23.9418 41.8248 41.8815 21.8812 -1.2033 1.08872 
27.7363 0.83311 0.955246 25.9376 3.01122 0.89145 29.1927 3.15389 0.677999 
27.4925 3.15158 -1.46741 31.075 1.12878 0.715922 32.743 -1.04268 0.85875 
32.9102 3.23836 0.786754 32.6865 1.14213 2.95275 29.2056 1.08794 -1.4918 
32.9663 0.995227 41.5022 2.2705 0.944496 0.65991 34.6108 0.964005 0.597206 
36.4962 -1.1309 0.683359 36.5111 1.01384 41.4118 34.7067 3.01767 41.4599 
5.78134 3.13645 3.13007 3.92173 3.28044 0.999816 5.69056 5.41152 1.23221 
3.62324 7.60706 1.05583 1.67406 7.67075 41.8969 9.15358 5.2801 0.977218 
7.52263 5.37878 3.23906 7.40508 7.59387 0.873086 8.95686 3.23701 -1.20492 
10.9462 3.1773 0.952276 14.7166 3.09973 0.844904 12.8079 5.219 0.77276 
18.2933 3.08016 0.905991 16.6477 5.201 1.12589 20.3111 5.2324 0.940777 
16.3536 3.14815 -1.16619 20.28 3.05477 2.92892 23.8876 5.18339 0.926299 
22.1551 5.08543 3.13644 20.4335 7.25043 -1.32032 27.3384 5.28564 0.86809 
25.6681 7.25963 0.76159 25.5614 5.26624 -1.3712 29.2468 5.25846 -1.15285 
27.445 7.26041 41.5064 31.0631 5.33919 0.69674 31.3194 7.362 2.79515 
33.1299 7.15264 0.649256 29.279 7.45955 0.844108 31.2482 3.13722 41.6347 
31.2091 7.40009 41.4722 38.2551 5.23656 1.17254 36.5732 2.93597 0.704402 
34.9866 5.14552 0.535383 38.1181 7.42684 3.00986 34.4982 7.59356 3.14281 
38.831 2.72746 41.5584 37.0508 4.73417 41.4815 5.56299 9.71947 0.917662 
3.73473 11.8062 1.04461 1.87662 9.76039 1.16256 5.58917 11.6922 -1.08128 
5.79458 11.8467 3.08387 3.42438 9.79726 -1.20529 11.1494 7.34341 0.926308 
9.51182 9.68853 0.95697 7.51236 9.65376 41.7425 9.2159 7.39505 2.99091 
11.1394 9.42899 3.03963 11.2825 9.72731 41.6192 12.8678 7.4778 -1.2475 
14.7718 7.23257 0.967553 13.007 9.45245 0.81307 15.0052 9.50111 41.7015 
16.5519 7.33501 41.7087 18.3614 7.34474 0.895324 16.7458 9.5187 0.936973 
18.4123 9.59041 -1.29571 20.3361 9.31922 0.791469 20.4735 7.15075 3.0059 
18.3231 9.5297 3.09032 22.1957 7.38792 1.02545 22.0424 11.394 0.805752 
23.9768 9.30293 0.643651 23.9453 11.73 41.5143 24.1411 7.12025 2.93279 
22.3017 9.50118 2.90742 27.7356 9.53334 0.597375 29.3758 9.4028 -1.44409 
25.6566 11.5382 0.743505 25.7467 9.78836 2.74606 29.7921 11.5046 0.562049 
27.2803 7.41084 2.80447 25.7681 9.41922 41.4575 31.4771 9.18505 0.540745 
33.3654 9.17908 41.2156 35.3323 7.26026 41.3574 36.1241 7.84879 0.942977 
34.2124 9.81812 1.03268 36.2518 11.8896 0.956151 36.0756 9.82902 41.8295 
1.74664 12.0713 41.8296 5.78937 13.9305 0.984212 3.92886 14.0294 -1.20721 
7.46666 11.7772 0.929404 9.39258 13.765 0.967294 7.55607 16.1716 0.879267 
9.4275 11.5921 3.00935 7.47172 13.9153 3.04707 15.0034 11.7493 1.08178 
13.2214 11.6642 41.8268 11.3692 11.7815 0.91896 13.0894 13.8705 0.75023 
15.0818 13.7698 3.0331 18.7329 11.6136 0.884964 16.9522 13.8187 1.03979 
20.2078 13.838 0.948633 16.7445 11.6024 2.87307 18.4702 13.8 3.27421 
24.0305 13.5808 0.947918 22.2628 13.999 3.14719 22.296 15.8031 0.741205 
23.7173 11.6308 2.97842 20.3471 11.6889 3.13324 24.1243 15.9564 41.4069 
28.0253 13.5091 0.379087 25.8554 13.7629 41.5734 26.1236 15.7806 0.3545 
26.2219 13.5671 2.65834 27.6689 11.4035 41.4304 32.4222 11.8967 1.09296 
30.5398 14.2888 1.13076 32.6722 16.1495 1.19975 32.5956 14.0511 2.99557 
31.635 11.3309 41.2346 29.6712 13.4991 41.4172 30.7206 16.1722 -0.928588 
38.4132 14.098 0.897109 34.5464 14.313 1.04201 34.2297 12.0808 -0.935797 
34.5863 16.3883 -1.06646 4.00061 16.359 0.900114 5.85535 16.1023 41.8417 
5.76949 18.4993 1.05306 38.3575 18.2942 0.796105 38.2185 16.1421 -1.15574 
4.11668 18.0611 -1.22205 11.2188 15.9976 1.04667 9.41097 18.2141 1.20997 
7.66674 18.1656 -1.04294 9.35849 15.8583 3.16472 13.0755 15.9342 41.8144 
15.0028 15.9741 1.0122 13.1158 18.1248 1.06098 11.2597 17.9326 3.1375 
13.0729 15.9619 3.10257 11.257 18.0556 -0.997027 18.6679 15.9618 0.919421 
16.7806 18.1297 1.0308 18.7114 18.0924 2.85447 20.8063 19.9801 3.05502 
18.9424 20.2551 1.04025 16.9064 15.9836 3.07389 24.5598 15.7567 2.84862 
20.6174 18.0753 0.743148 24.462 17.9196 0.652153 22.6952 17.8431 2.79186 
28.8406 16.4084 1.1632 27.0285 18.3756 1.29901 25.1974 20.6917 1.07881 
28.9542 20.3388 1.18307 25.2141 18.4368 3.23338 27.9588 15.7366 41.1939 
30.7834 18.3095 1.03335 34.7894 16.14 3.14064 2.26936 20.1345 -1.22083 
36.4759 16.1765 0.910643 34.5128 18.1634 0.977754 36.3282 20.2752 0.796722 
34.4571 20.377 -1.10034 5.9059 20.3329 41.7573 3.87421 20.3245 0.712861 
5.90641 22.5185 0.896103 3.95764 22.302 2.87428 3.9022 24.4144 0.949169 
5.82142 20.297 2.94186 5.53791 24.6048 3.17986 3.98336 22.518 -1.26313 
7.86621 20.355 1.07852 9.62676 20.3832 -1.23579 9.57097 22.533 1.08714 
11.319 22.401 -1.27058 7.57097 22.5395 3.03132 15.0094 20.2655 0.830848 
11.2646 20.2829 1.10758 13.0015 22.2636 0.927952 14.7985 24.5202 0.995713 
13.1234 20.0772 3.24764 15.0128 22.3707 3.00993 13.2446 24.5029 3.09988 
16.9375 22.3135 1.00355 18.9809 22.28 3.1336 20.7221 22.2883 0.814106 
22.6125 20.0215 0.72311 21.7956 22.6951 3.45288 23.4612 22.7545 1.27593 
23.8436 24.8179 3.34497 23.378 20.6531 3.18154 27.2576 22.6497 0.929868 
25.4398 24.6817 1.25241 29.2111 22.513 3.29639 30.9619 20.4256 3.04994 
32.7658 20.4562 1.03233 30.8593 22.3914 0.896622 32.8565 22.3642 3.09545 
32.7037 24.5341 1.0039 32.8009 22.4875 -1.19173 38.156 22.4793 0.76392 
34.6496 22.6059 0.956677 5.67815 26.6136 1.06523 38.2171 26.626 0.80155 
7.63515 24.5855 1.201 9.50043 26.7362 1.06598 7.56735 28.6064 0.935807 
9.57809 24.4837 3.18892 11.3186 24.7082 0.975587 13.2588 26.7119 1.08008 
11.2238 28.7395 1.05063 15.1133 26.6436 3.2294 11.3365 26.7581 3.16855 
13.2218 28.6075 3.17497 14.916 26.4302 -1.09337 18.9631 24.33 0.89181 
20.0204 24.8841 3.40927 17.1125 24.3375 2.93786 16.7452 26.4413 0.949431 
18.2851 28.9341 1.232 16.4492 29.1365 3.36975 18.1935 27.0068 3.31647 
16.9317 28.3421 41.8487 21.8878 24.8175 1.28639 20.0436 26.8163 1.24306 
23.8966 26.8788 1.19063 22.1413 26.9536 3.22469 23.9668 29.0079 3.15959 
29.1376 24.6704 1.10553 27.209 26.7734 1.0032 25.7288 28.9567 1.0715 
27.5002 28.8614 41.8817 29.1297 26.738 -0.902779 31.0683 26.66 1.063 
31.0152 28.794 3.0667 36.3925 24.6549 0.938849 34.6057 26.6563 1.329 
36.5862 28.8179 1.11653 36.4764 26.5659 3.27799 34.9275 28.8135 3.27835 
34.5184 24.5272 41.7342 3.86374 28.8978 0.964213 5.70184 30.9494 0.849258 
3.94489 33.2809 0.740509 3.82849 30.9513 -1.22459 9.62805 28.7065 -1.2146 
9.26756 30.7855 0.897249 9.58769 32.9225 2.76913 7.47957 32.9678 0.849046 
11.2055 32.891 0.55418 9.1287 28.7192 3.07714 15.1065 28.9298 1.04446 
11.3562 30.6333 3.05527 13.0764 30.9801 0.948679 14.771 33.3099 1.19378 
12.6897 33.1326 3.17123 11.3337 30.964 -1.38724 16.7276 31.1827 0.992483 
18.4364 31.2819 3.27008 18.4669 33.1731 1.12848 20.1729 31.1425 1.1145 
22.0692 29.1098 1.12917 20.2895 28.9623 3.38303 23.891 31.192 1.03865 
21.9903 31.1377 3.27084 21.9527 33.1746 1.14557 29.0185 28.7383 1.06272 
27.5627 31.0523 1.00226 25.6682 31.2546 -1.10363 25.696 33.2896 0.99892 
25.6442 31.0562 3.19634 32.9788 28.6871 1.20848 31.142 30.8579 0.954561 
32.8371 31.0659 3.08053 32.8805 33.2184 1.01596 32.8147 31.0387 -1.27737 
30.9066 28.873 -0.908379 31.1669 33.3798 41.7695 2.07477 30.9889 1.20517 
34.6337 30.9441 1.16001 34.5906 33.1966 3.05362 36.4009 31.0839 3.22241 
5.88123 35.4045 1.00825 1.90394 35.2355 0.728921 4.00803 37.3472 0.860364 
9.27113 34.9245 0.694867 10.8591 37.2773 0.954172 9.25979 33.0109 -1.51619 
7.40445 35.1414 -1.33071 9.62184 37.2209 41.5749 12.6665 35.0042 1.24827 
14.6966 35.3985 3.21513 14.5279 35.179 -1.07885 11.3437 35.0467 41.6414 
16.6551 35.2475 0.902818 20.1049 35.2767 1.23581 23.9029 35.3699 0.948289 
22.1569 35.2408 2.97492 21.8842 35.3769 -1.01146 29.4573 33.2646 1.04239 
27.4456 35.3901 0.890319 25.6444 35.3476 41.7341 25.9128 37.5958 0.964493 
27.5442 33.3866 -0.989957 27.4377 37.5427 -1.28999 31.035 35.4442 1.02075 
33.0708 37.3797 1.03381 29.3329 35.5236 41.6123 33.0136 35.3627 41.8019 
36.4776 33.0142 1.114 34.8617 35.2028 0.989758 2.12206 37.2302 3.19237 
34.8659 37.5109 -1.17527 36.6762 37.5966 1.079 34.7026 33.1252 -1.11895 
5.53851 -1.10766 3.03489 5.89265 37.4204 2.95538 5.80458 39.448 0.9148 
4.00452 39.3428 3.03196 2.40642 -1.18501 41.39 5.77158 37.4317 41.764 
7.93817 37.4736 0.959066 9.5904 39.7082 0.885233 7.57831 39.6628 2.94629 
14.5522 37.2574 1.02766 13.0017 39.4735 1.00329 14.8114 39.6569 3.0804 
12.9277 37.3972 41.6421 18.41 37.423 1.18125 16.6045 39.5904 1.04565 
18.1985 39.5648 3.24958 20.2548 37.4174 3.26134 20.0041 39.6597 1.16736 
16.4543 41.7312 3.14375 21.9426 37.3938 1.03913 23.9773 39.8961 0.960337 
23.8765 -0.996539 3.19648 23.9903 37.6342 3.00641 20.3238 37.4889 41.6984 
23.7956 37.49 -1.32278 25.694 42.0253 0.996015 29.6141 -1.23185 0.904784 
29.024 37.4765 0.853997 27.5091 39.8309 0.88674 29.252 39.4504 -1.26845 
25.6194 39.6904 -1.2582 31.2631 39.3709 0.887143 33.0455 39.597 -1.26116 
33.1939 39.4607 2.97628 31.3047 -1.14954 -1.46499 34.4566 -0.998765 2.82582 
2.19336 39.5928 0.785337 34.9549 37.3407 3.11238 34.7709 39.7171 0.828809 
36.4809 39.8385 41.4442 36.392 39.7703 2.92351 5.78311 1.12676 5.17686 
3.82625 1.19314 7.29341 3.92501 3.31697 5.22499 5.78896 3.16255 7.51645 
11.3078 0.912886 3.17854 9.44517 41.7313 2.99346 9.36209 1.08858 5.23485 
7.52012 3.28951 5.18128 7.60584 1.1983 7.43463 9.32729 41.8877 7.21216 
9.3544 3.24151 7.24879 12.9675 0.981644 5.39468 12.9758 3.16949 3.03529 
[...]
POINT_DATA 4000
FIELD FieldData 6
id 1 4000 int
8 3 402 401 12 47 11 7 406 
449 16 15 414 13 20 24 18 19 
418 28 22 63 25 23 32 67 71 
69 36 35 75 434 30 34 4 40 
39 38 77 445 43 48 83 81 52 
446 87 49 51 55 56 59 60 64 
57 461 68 462 101 72 107 66 70 
109 76 513 115 111 73 113 44 79 
80 481 517 41 78 88 123 84 125 
525 82 91 92 86 489 490 90 93 
95 96 94 97 99 100 98 104 501 
498 103 143 108 145 505 502 112 110 
147 506 151 509 106 116 114 117 119 
120 159 118 121 128 122 127 132 167 
529 526 135 133 131 136 534 139 140 
144 537 538 148 542 183 545 541 185 
152 146 187 546 149 155 156 195 554 
153 150 193 124 160 157 197 163 165 
168 164 161 162 171 172 166 569 173 
175 176 570 573 170 179 180 578 621 
219 577 585 184 188 582 191 192 227 
231 586 189 196 597 201 199 200 239 
237 205 203 208 602 243 605 645 202 
207 209 212 210 606 215 211 216 255 
613 614 653 220 618 224 223 622 228 
665 625 232 267 630 633 235 236 634 
275 234 204 240 248 244 247 252 287 
649 251 256 291 654 650 693 254 259 
661 657 260 299 697 658 297 263 264 
268 662 705 271 272 307 309 270 276 
713 279 280 319 678 717 277 283 288 
323 282 289 292 729 327 331 689 295 
690 296 335 733 290 300 698 339 304 
303 701 308 702 343 311 312 306 347 
706 315 316 714 355 314 313 353 284 
320 757 718 328 324 363 332 371 329 
326 369 336 734 334 330 340 344 348 
742 342 351 352 346 387 349 389 356 
395 350 354 359 360 761 397 399 357 
405 765 368 762 1 365 367 372 766 
375 376 774 373 379 380 778 781 384 
417 383 388 425 785 381 385 27 31 
391 392 390 386 396 394 794 33 437 
364 797 400 398 798 408 802 443 845 
410 409 412 447 806 809 849 416 453 
455 451 814 421 457 420 459 861 424 
857 422 428 423 430 426 469 427 432 
826 431 467 471 436 475 473 477 404 
438 440 479 439 485 442 448 483 842 
452 846 450 491 889 454 456 854 460 
458 858 901 465 464 463 468 865 905 
466 470 472 507 869 866 474 476 515 
511 441 444 478 480 519 482 488 523 
521 925 486 487 492 527 886 890 493 
494 495 496 894 497 499 500 898 937 
504 503 508 902 941 512 549 909 949 
510 514 516 555 551 484 518 520 559 
565 522 528 563 922 530 532 531 930 
929 533 535 536 934 539 540 938 977 
543 544 548 942 589 547 552 587 550 
553 593 591 556 595 561 557 524 558 
560 599 562 568 962 961 1001 965 571 
566 567 572 609 969 1009 970 574 575 
576 611 615 1013 580 579 619 978 584 
581 583 588 623 592 627 629 1029 986 
590 594 596 635 598 564 600 639 637 
1037 998 601 603 608 1002 643 1005 610 
607 612 1010 616 1014 655 1053 617 1021 
620 659 1018 1017 624 628 1065 663 1061 
1025 626 669 631 632 667 1026 1069 671 
1030 636 675 1073 1034 677 604 638 640 
641 642 648 1085 683 1042 646 651 647 
652 1046 1089 1050 691 656 1093 695 1054 
660 1057 699 664 668 1062 1105 666 670 
672 1109 1066 674 673 676 711 715 679 
644 680 1078 685 682 688 684 723 686 
687 692 1086 727 694 696 731 1094 700 
704 737 1098 1137 703 1101 708 1102 743 
1141 709 710 707 712 1106 753 751 716 
755 681 719 720 721 759 725 722 728 
763 769 726 730 732 767 1126 771 773 
736 735 741 739 738 740 779 745 1145 
744 748 1185 783 749 750 746 747 1146 
752 787 1189 754 793 756 795 791 724 
758 760 799 403 768 805 407 772 1166 
411 1170 770 413 415 775 776 813 1174 
777 419 780 784 782 788 429 789 786 
792 790 433 435 796 764 800 801 1198 
841 808 804 843 1241 812 847 851 810 
816 855 1253 818 820 859 824 1218 822 
863 828 823 1222 830 832 827 831 1269 
834 871 836 1233 838 877 840 879 885 
848 883 850 852 887 891 853 856 1254 
1293 860 1258 897 1257 862 864 868 1262 
903 1261 1305 867 872 911 1270 875 870 
873 874 876 1273 1313 878 881 844 880 
882 888 884 892 927 931 1290 1329 895 
893 896 935 1294 1333 899 900 939 1297 
1298 1337 945 1301 904 908 1302 907 906 
912 951 910 1306 1309 915 913 914 916 
917 918 919 920 957 921 923 928 1325 
924 926 932 1326 967 1369 933 936 1334 
971 1330 940 944 979 1381 943 948 983 
1385 947 946 952 989 987 950 954 993 
953 955 956 991 959 958 960 963 968 
1362 1003 966 972 1011 1370 973 974 975 
976 1413 981 980 984 1421 1378 985 982 
988 1382 990 992 1027 1389 1429 1390 994 
1031 995 996 1035 1433 1033 1393 997 999 
964 1000 1041 1045 1008 1445 1004 1402 1006 
1007 1012 1049 1406 1015 1016 1055 1414 1019 
1020 1024 1457 1022 1023 1422 1028 1425 1032 
1067 1426 1469 1430 1071 1036 1075 1038 1039 
1040 1438 1079 1043 1048 1442 1047 1052 1489 
1446 1450 1051 1056 1095 1454 1493 1097 1058 
1060 1059 1099 1063 1064 1068 1103 1461 1465 
1462 1505 1072 1107 1466 1070 1113 1074 1076 
1115 1117 1044 1077 1080 1119 1081 1082 1083 
1088 1084 1485 1129 1087 1091 1092 1131 1127 
1490 1090 1133 1096 1494 1100 1498 1501 1104 
1541 1108 1143 1502 1149 1509 1111 1506 1112 
1147 1110 1151 1114 1116 1153 1155 1118 1120 
1159 1157 1125 1122 1165 1123 1124 1128 1161 
1565 1169 1132 1167 1130 1173 1135 1136 1134 
1171 1175 1138 1140 1139 1577 1142 1545 1144 
1148 1181 1585 1542 1152 1187 1589 1154 1150 
1156 1195 1593 1121 1158 1160 1197 1199 1162 
1163 803 1168 1164 807 811 1172 815 1176 
817 821 819 1179 1177 1180 1178 1578 1581 
825 1184 1182 1183 1188 1225 1582 1186 829 
1191 1192 1193 833 835 1590 1190 1194 1196 
837 1597 839 1200 1202 1208 1204 1602 1249 
1206 1212 1606 1610 1210 1247 1251 1207 1649 
1214 1216 1215 1213 1614 1653 1220 1217 1618 
1661 1657 1221 1224 1228 1263 1625 1622 1229 
1226 1267 1232 1230 1231 1234 1236 1237 1201 
1238 1240 1279 1245 1281 1285 1243 1242 1248 
1244 1289 1246 1252 1250 1650 1287 1689 1255 
1256 1295 1654 1693 1259 1260 1658 1299 1265 
1264 1268 1266 1272 1709 1670 1311 1274 1275 
1271 1276 1713 1673 1278 1277 1280 1317 1319 
1641 1677 1678 1282 1283 1288 1682 1323 1286 
1292 1331 1686 1291 1690 1296 1694 1733 1300 
1341 1697 1698 1303 1304 1308 1702 1310 1307 
1347 1312 1706 1710 1314 1315 1316 1355 1753 
1714 1318 1284 1320 1321 1357 1322 1328 1365 
1363 1327 1332 1730 1367 1371 1335 1373 1336 
1339 1338 1340 1344 1379 1738 1377 1741 1737 
1345 1343 1342 1348 1383 1742 1349 1351 1346 
1352 1353 1350 1354 1356 1391 1793 1358 1324 
1359 1360 1797 1399 1361 1368 1403 1364 1405 
1366 1372 1766 1809 1407 1769 1374 1375 1376 
1415 1417 1380 1384 1777 1817 1388 1782 1785 
1825 1387 1386 1392 1786 1427 1431 1790 1394 
1395 1396 1794 1435 1833 1397 1401 1398 1400 
1439 1441 1408 1404 1805 1409 1411 1449 1410 
1412 1810 1806 1453 1416 1455 1814 1418 1419 
1420 1424 1459 1821 1818 1423 1428 1822 1826 
1432 1467 1869 1471 1434 1830 1436 1437 1440 
1479 1477 1443 1448 1444 1842 1845 1447 1451 
1452 1491 1456 1495 1497 1857 1458 1460 1858 
1464 1897 1861 1463 1468 1503 1862 1472 1507 
1866 1473 1470 1475 1474 1476 1511 1513 1870 
1913 1478 1480 1482 1483 1488 1481 1484 1486 
1487 1492 1533 1496 1894 1535 1499 1500 1539 
1537 1898 1504 1508 1902 1945 1941 1512 1551 
1510 1549 1553 1515 1514 1516 1555 1518 1519 
1517 1557 1520 1917 1522 1525 1523 1528 1524 
1922 1529 1569 1527 1526 1532 1530 1573 1531 
1534 1536 1575 1571 1538 1540 1544 1543 1548 
1546 1547 1946 1552 1550 1989 1950 1554 1556 
1595 1591 1521 1558 1561 1559 1560 1599 1958 
1205 1203 1562 1563 1568 1564 1961 1209 1566 
1609 1567 1572 1970 1574 1211 1570 1576 1579 
1219 1580 1621 1583 1584 1223 1588 1982 1985 
1586 1227 1587 1986 1592 1594 1235 1633 1596 
1994 1598 1239 1600 1997 1637 1601 1605 1608 
1604 1643 1612 1607 1647 1651 1611 2010 2049 
1616 1655 1615 1613 1620 1619 2017 2018 2061 
1624 1628 1623 1665 1663 2025 2065 1626 1632 
1667 2029 2026 1634 1630 1636 1675 1638 1640 
2037 2001 1639 2038 1642 1645 1681 1685 1648 
1683 1646 1652 2046 2089 1691 1656 1695 2050 
2093 1659 1660 1664 2097 2058 1662 1668 1703 
1669 1666 1672 1711 1707 2069 1671 1674 1676 
1715 2073 1679 2077 1644 2081 1680 1725 1688 
1684 1729 1687 1692 1727 2129 1731 1696 2094 
1735 2090 1699 1700 1704 1701 1705 2105 1708 
1743 2102 2145 2109 1712 1749 1716 1755 2110 
2114 1718 1719 1717 1720 1759 2118 2117 1721 
1723 1722 1728 1726 1732 1767 1734 1736 2134 
1773 1775 1739 1740 1744 1779 2138 1745 1748 
2185 1747 1750 1746 1752 2150 2149 2146 1754 
2153 1751 1756 1795 2154 1757 1758 1724 1760 
1799 1761 1765 1762 1763 1768 1803 1770 1772 
1771 1807 1813 1776 1774 1815 2213 2170 1781 
1780 1778 1784 1819 1783 1788 1823 1789 1787 
1791 1792 1827 2186 2190 1829 2189 2229 1796 
2233 1835 2201 1764 1798 1800 1839 1837 1802 
1808 2202 1843 1811 1849 1812 1851 2210 1816 
1855 2214 1820 1859 2257 1824 1865 1828 2222 
1832 2226 2230 1831 1834 1836 1875 2234 1841 
1801 1838 1877 1804 1840 2277 1848 1844 2242 
2241 1850 1847 1846 1852 2246 1853 1854 1856 
2254 1895 1860 1864 2261 2265 1905 1863 1868 
1903 2305 1871 1867 1872 1907 2270 2269 2266 
1873 1874 1876 1915 2273 2274 2313 1878 1879 
1880 1919 2278 1885 1881 1883 1882 1888 1923 
2281 1889 1929 1887 1886 1892 1927 1893 1891 
2293 1890 1931 2290 1896 2333 1937 1899 1900 
2298 2301 1939 2337 2297 1901 1904 1908 1943 
1909 1906 1947 1912 2306 1951 1911 1949 2349 
1910 1953 1914 1916 2353 1955 2310 2314 1957 
1884 1918 1920 1925 1928 1963 1924 1930 1926 
1932 1934 1933 1935 1936 2334 2373 1938 1940 
1979 1944 1942 1948 1952 2350 1987 1993 1954 
1956 1995 2354 1991 1921 1959 1960 1999 2358 
1965 1962 1603 1968 1964 1969 1967 1971 1966 
1972 2009 1974 1973 1975 1976 1981 1617 1977 
1978 1980 1983 1984 1988 1629 1990 1627 1992 
2386 1631 1635 1996 2390 1998 2361 2000 2398 
2005 2002 2008 2402 2006 2012 2051 2410 2406 
2014 2013 2053 2016 2055 2015 2020 2057 2418 
2059 2457 2421 2022 2024 2028 2021 2422 2032 
2430 2067 2429 2030 2033 2034 2036 2035 2004 
2040 2039 2401 2085 2045 2043 2042 2048 2044 
2441 2445 2047 2052 2087 2446 2091 2054 2056 
2095 2454 2060 2497 2064 2458 2063 2062 2068 
2462 2101 2505 2103 2461 2070 2066 2072 2071 
2075 2074 2076 2115 2041 2079 2078 2080 2082 
2125 2083 2088 2086 2092 2490 2127 2486 2096 
2133 2131 2135 2493 2494 2098 2137 2099 2100 
2537 2541 2498 2141 2501 2104 2108 2106 2509 
2111 2107 2506 2112 2549 2113 2116 2510 2151 
2155 2553 2157 2084 2119 2120 2159 2121 2165 
2161 2123 2122 2128 2163 2126 2132 2169 2130 
2173 2136 2177 2139 2140 2144 2538 2142 2143 
2148 2147 2187 2152 2191 2589 2156 2593 2193 
2550 2124 2158 2160 2199 2597 2162 2205 2168 
2203 2164 2601 2209 2167 2166 2172 2207 2171 
2174 2175 2211 2176 2215 2613 2181 2178 2179 
2180 2184 2217 2183 2182 2188 2625 2223 2581 
2582 2192 2231 2629 2194 2195 2196 2594 2633 
2237 2197 2198 2200 2239 2637 2598 2208 2204 
2245 2243 2605 2641 2206 2212 2247 2606 2253 
2216 2255 2218 2219 2220 2617 2618 2259 2221 
2224 2225 2228 2227 2232 2669 2271 2235 2236 
2275 2630 2634 2673 2238 2240 2279 2638 2248 
2244 2283 2685 2249 2251 2252 2650 2250 2256 
2258 2260 2299 2658 2264 2262 2263 2268 2267 
2272 2309 2666 2670 2709 2311 2276 2315 2674 
2280 2678 2677 2717 2285 2282 2288 2284 2289 
2286 2287 2292 2329 2686 2291 2294 2295 2296 
2694 2693 2697 2300 2304 2341 2302 2303 2308 
2345 2343 2705 2307 2312 2706 2710 2316 2355 
2753 2318 2681 2319 2321 2317 2320 2357 2721 
2718 2322 2323 2325 2328 2722 2765 2326 2327 
2332 2730 2726 2729 2769 2330 2335 2733 2331 
2336 2734 2339 2338 2340 2342 2344 2348 2385 
2346 2749 2389 2347 2352 2391 2351 2356 2754 
2393 2324 2359 2360 2399 2758 2757 2365 2362 
2003 2363 2368 2762 2369 2366 2007 2367 2372 
2766 2370 2011 2371 2375 2374 2376 2377 2379 
2777 2378 2019 2380 2778 2023 2381 2383 2384 
2382 2388 2387 2027 2392 2394 2433 2031 2395 
2396 2397 2364 2400 2437 2408 2403 2802 2412 
2806 2451 2447 2407 2809 2411 2416 2414 2453 
2455 2415 2814 2420 2817 2424 2428 2825 2865 
2425 2423 2822 2426 2432 2431 2427 2434 2436 
2435 2404 2438 2440 2439 2443 2442 2448 2444 
2483 2449 2450 2452 2491 2853 2456 2495 2850 
2893 2854 2460 2459 2499 2857 2858 2901 2465 
2464 2463 2862 2468 2861 2469 2466 2467 2472 
2507 2473 2474 2513 2470 2475 2471 2476 2874 
2870 2478 2477 2479 2480 2485 2525 2482 2488 
2523 2484 2489 2487 2492 2531 2496 2533 2535 
2894 2500 2941 2504 2898 2502 2545 2503 2902 
2508 2945 2543 2909 2512 2547 2514 2515 2511 
2516 2914 2555 2953 2481 2518 2557 2517 2519 
2520 2522 2565 2561 2528 2921 2524 2922 2526 
2529 2527 2532 2567 2933 2530 2536 2534 2575 
2539 2540 2579 2937 2585 2544 2542 2942 2548 
2546 2551 2587 2552 2591 2989 2950 2554 2556 
2993 2558 2521 2559 2560 2958 2957 2961 2563 
2562 2568 2564 2603 2569 2566 2570 2571 2572 
2607 2574 2573 2576 2611 2577 2578 2977 2580 
2584 2619 2583 2982 2623 2588 2586 2590 2592 
2627 2990 3029 2595 2596 2994 2631 2635 3033 
2599 2600 2639 2998 2645 2602 2608 2643 3002 
2609 2649 2610 2612 3010 2614 2615 2616 3014 
3053 2657 2620 2624 3057 2622 2621 2628 2663 
3065 2626 2632 2667 3030 2636 3034 2671 2675 
3073 3037 2604 3001 2640 3038 3077 2642 2648 
2644 3045 3042 2646 2651 2647 2652 3089 3046 
2653 2654 2655 3050 2656 3054 2661 2701 2659 
2660 2664 2699 3058 2665 2662 2668 2703 3062 
3105 3066 2672 2707 2711 3109 2713 2676 2715 
2679 2680 3041 2719 3117 3078 2682 3085 2683 
2688 3082 3081 2689 2687 2692 3129 2690 2691 
2695 3090 2696 2735 3093 3133 2698 3101 2700 
3098 3097 2704 2741 2702 2745 3102 2708 2743 
2712 3106 2747 3149 2751 2714 2716 2755 3113 
3114 2684 2720 2725 2723 2728 3125 2727 2732 
3169 2731 3130 2736 2737 3137 2738 2740 2739 
3138 2744 3145 2742 2748 2785 2783 3142 3185 
2746 2752 2789 2787 3146 2750 2793 2756 3153 
3150 2797 2761 2724 2759 2760 3157 3121 2405 
2763 2768 2805 3165 3162 2409 2767 2771 2772 
3170 3166 2774 2413 2775 2770 2773 2776 3174 
2417 2419 2779 2780 3178 2781 2784 2782 2788 
3182 3189 2786 3186 2792 2794 2791 2795 2790 
2796 3190 3194 2798 2801 2764 2799 2800 2808 
3205 2804 3202 3201 2812 2807 2849 2811 3206 
2810 2851 2816 2815 3214 2818 2820 2819 3221 
3217 2824 2828 2823 3225 3265 2869 2826 2829 
2832 3229 2827 2830 2833 2834 2836 2835 3234 
2837 2838 2840 2845 2881 2842 2843 2848 2841 
2844 2883 2847 2846 2852 3250 2856 2855 2895 
2891 3254 3257 2897 2860 2859 3258 3297 2864 
2863 2868 2866 2867 3269 2871 3266 2872 2907 
2873 2875 2876 3273 2878 2877 2879 2880 2919 
3278 3241 2882 2885 2888 2884 2923 3325 2889 
2887 2929 2886 2892 2927 3329 3289 2890 2896 
2899 2900 2904 2939 3298 2903 2905 3302 2908 
3345 3301 3341 2906 2949 2912 2913 2910 2915 
2911 2916 3314 2918 2917 2920 3318 2925 2965 
2928 2963 2926 2930 2932 2967 3326 2934 2931 
2936 2935 2938 2940 2979 3338 3377 2943 2944 
2948 3342 2981 2946 2951 2947 2952 2954 2955 
2956 2995 2924 2959 2960 2999 3357 2962 2968 
2969 2966 3009 2972 2971 3409 2970 2975 2973 
2974 2976 3015 3373 3374 2978 2980 3019 2985 
2984 3025 2983 2988 3385 2987 2986 2992 3386 
2991 2996 3031 2964 2997 3000 3005 3003 3008 
3402 3441 3006 3007 3012 3047 3410 3013 3011 
3016 3414 3051 3018 3061 3017 3020 3417 3418 
3021 3425 3022 3024 3023 3028 3465 3461 3027 
3026 3426 3032 3067 3069 3469 3035 3036 3430 
3434 3039 3004 3040 3079 3438 3043 3048 3442 
3049 3052 3446 3449 3055 3056 3454 3450 3453 
3060 3059 3064 3457 3458 3063 3068 3462 3103 
3072 3107 3074 3075 3070 3071 3076 3115 3474 
3044 3080 3478 3485 3083 3088 3525 3084 3481 
3482 3086 3087 3092 3486 3094 3091 3095 3493 
3096 3494 3141 3099 3100 3104 3501 3502 3108 
3143 3545 3541 3505 3147 3112 3506 3509 3510 
3110 3111 3116 3553 3118 3119 3120 3159 3521 
3122 3123 3128 3127 3126 3132 3526 3529 3134 
3131 3135 3136 3534 3177 3139 3140 3144 3148 
3542 3549 3187 3152 3589 3546 3151 3154 3155 
3156 3550 3158 3124 3160 3558 3557 3161 2803 
3163 3168 3164 3209 3167 3172 3566 3171 3569 
3570 2813 3173 3573 3176 3175 3574 3181 3179 
3180 3578 2821 3184 3183 3582 3188 3581 3585 
3586 3192 3191 3193 3195 2831 3196 3593 3590 
3197 3198 3199 3597 2839 3200 3208 3602 3204 
3203 3641 3645 3210 3212 3211 3609 3247 3213 
3216 3613 3215 3251 3610 3614 3218 3220 3621 
3219 3224 3222 3223 3228 3226 3232 3626 3669 
3231 3230 3236 3235 3275 3237 3238 3240 3277 
3279 3239 3638 3245 3243 3242 3248 3285 3283 
3249 3246 3252 3649 3253 3256 3255 3295 3650 
3259 3260 3264 3658 3262 3261 3263 3662 3268 
3705 3661 3267 3272 3311 3274 3270 3271 3276 
3315 3713 3317 3244 3280 3319 3281 3677 3282 
3288 3685 3682 3323 3725 3286 3287 3292 3327 
3291 3293 3290 3294 3296 3333 3693 3694 3299 
3300 3304 3697 3305 3303 3308 3701 3309 3306 
3310 3307 3312 3749 3313 3353 3351 3316 3355 
3714 3284 3320 3321 3359 3365 3322 3328 3363 
3765 3332 3726 3369 3331 3330 3334 3335 3336 
3734 3773 3337 3339 3340 3737 3344 3343 3348 
3381 3349 3346 3389 3347 3352 3387 3350 3354 
3393 3356 3391 3395 3358 3324 3360 3758 3797 
3362 3368 3364 3403 3801 3370 3371 3367 3366 
3372 3766 3375 3376 3415 3413 3774 3379 3380 
3378 3778 3382 3383 3384 3388 3785 3421 3781 
3429 3392 3790 3786 3427 3390 3394 3433 3396 
3794 3361 3397 3398 3401 3761 3399 3400 3439 
3405 3408 3404 3802 3407 3411 3406 3412 3806 
3447 3451 3810 3416 3455 3813 3814 3817 3419 
3420 3424 3818 3422 3423 3428 3865 3821 3432 
3471 3829 3826 3830 3431 3435 3436 3473 3833 
3834 3437 3440 3837 3838 3877 3445 3443 3448 
3842 3885 3841 3845 3452 3889 3456 3854 3495 
3853 3850 3857 3459 3460 3897 3499 3858 3464 
3463 3468 3901 3470 3466 3467 3472 3507 3869 
3511 3475 3476 3515 3873 3870 3874 3477 3444 
3479 3480 3517 3878 3917 3483 3488 3523 3484 
3925 3489 3490 3487 3492 3886 3527 3491 3496 
3890 3497 3498 3500 3898 3504 3503 3902 3508 
3905 3512 3906 3547 3513 3514 3516 3555 3519 
3518 3520 3957 3522 3565 3528 3563 3921 3965 
3532 3926 3929 3530 3567 3533 3535 3933 3531 
3536 3571 3934 3537 3538 3540 3539 3938 3577 
3543 3544 3548 3945 3942 3941 3552 3949 3551 
3950 3554 3556 3954 3595 3591 3524 3559 3560 
3958 3599 3561 3562 3568 3962 3564 3605 3207 
3572 3969 3966 3970 3576 3575 3973 3579 3580 
3584 3625 3583 3588 3982 3587 3227 3592 3989 
3986 3990 3233 3594 3596 3598 3600 3601 3998 
45 2 5 3608 3603 10 6 3606 3612 
3607 14 3616 3611 21 3617 3618 3620 3619 
3624 17 3665 3622 3628 65 26 3630 3632 
3667 29 3631 3634 3636 3635 3675 3637 3604 
3640 37 3642 3643 42 85 3648 3683 50 
46 3647 3646 3652 3687 53 54 3653 3651 
3654 3655 3656 58 3657 3659 3660 3664 61 
62 3663 3668 3670 3666 3709 3672 3711 74 
3671 3673 3674 3676 3715 3681 3644 3679 3678 
3680 3688 3684 3723 89 3729 3689 3686 3692 
129 3690 3691 3695 3696 3735 141 3699 3698 
3700 3704 105 3702 102 3703 3708 3706 3707 
3712 3747 3710 3753 3716 3751 3717 3718 3757 
3719 3720 3759 3722 3728 3763 126 3769 3727 
3732 169 3767 130 134 3730 3731 3733 3736 
3771 137 3739 138 3738 3740 3779 181 3741 
3745 3742 3743 3744 142 3748 3746 3789 3752 
3787 3750 3754 3755 154 3756 3791 3795 3721 
3724 158 3760 3799 3762 3805 3768 3764 3770 
3772 3807 3775 174 3776 3815 177 3777 178 
3780 3782 3783 182 3784 3788 229 186 3792 
190 194 233 3793 3796 3835 3831 3798 198 
3800 3839 245 3803 3808 3843 206 3809 3811 
3812 213 3816 214 3855 218 217 3819 3820 
221 265 3824 222 3825 225 3822 3823 3828 
226 269 3827 3832 3867 3871 273 230 3836 
3875 238 241 3804 3840 3879 242 3848 3844 
3849 3846 249 3847 3851 246 3852 250 253 
3893 293 3856 3895 257 258 261 3859 3860 
3864 262 3862 3863 3861 3868 3909 3866 266 
3872 3907 3913 274 3876 3915 278 3880 3919 
281 3882 285 3883 3888 325 3891 286 3887 
3892 3894 294 3896 3935 333 3899 3900 298 
341 3939 301 302 305 3904 3903 3908 310 
3912 3951 3910 3947 3911 3914 3916 3955 3953 
3881 3884 3918 317 318 3920 322 3922 321 
3923 3928 3927 3932 3930 3931 3936 3975 338 
3937 337 3940 3944 3977 345 3943 3948 3983 
3946 3952 3987 3956 3993 393 3959 3924 358 
3960 361 362 3963 3968 3964 370 9 366 
3967 3972 374 3615 3971 3976 3974 378 3978 
3979 377 3980 3981 3985 3623 3984 382 3988 
3629 3627 3991 3992 3633 3995 3994 3996 3997 
3961 3999 3639 4000 
type 1 4000 int
1 1 1 1 1 1 1 1 1 
1 1 1 1 1 1 1 1 1 
1 1 1 1 1 1 1 1 1 
1 1 1 1 1 1 1 1 1 
1 1 1 1 1 1 1 1 1 
1 1 1 1 1 1 1 1 1 
1 1 1 1 1 1 1 1 1 
1 1 1 1 1 1 1 1 1 
1 1 1 1 1 1 1 1 1 
1 1 1 1 1 1 1 1 1 
1 1 1 1 1 1 1 1 1 
1 1 1 1 1 1 1 1 1 
1 1 1 1 1 1 1 1 1 
1 1 1 1 1 1 1 1 1 
1 1 1 1 1 1 1 1 1 
1 1 1 1 1 1 1 1 1 
1 1 1 1 1 1 1 1 1 
1 1 1 1 1 1 1 1 1 
1 1 1 1 1 1 1 1 1 
1 1 1 1 1 1 1 1 1 
1 1 1 1 1 1 1 1 1 
1 1 1 1 1 1 1 1 1 
1 1 1 1 1 1 1 1 1 
1 1 1 1 1 1 1 1 1 
1 1 1 1 1 1 1 1 1 
1 1 1 1 1 1 1 1 1 
1 1 1 1 1 1 1 1 1 
1 1 1 1 1 1 1 1 1 
1 1 1 1 1 1 1 1 1 
1 1 1 1 1 1 1 1 1 
1 1 1 1 1 1 1 1 1 