# vtk DataFile Version 4.0
Generated by LAMMPS
ASCII
DATASET POLYDATA
POINTS 4000 float
5.09642 1.22877 1.26123 3.38363 1.19925 41.4758 3.4425 -0.960505 1.22573 
38.6345 1.21019 1.29664 3.50955 3.40379 1.21967 38.5763 -0.866272 41.4399 
5.43391 3.36128 3.24123 5.21653 41.4907 -0.869671 9.13028 1.00857 1.28724 
10.7928 3.29142 1.25016 10.9871 41.2786 1.23273 7.17407 1.26349 3.27331 
12.851 1.19157 1.34565 14.7795 3.28878 1.34081 10.9947 1.09046 3.3373 
11.0542 1.1904 41.5891 14.613 1.28899 -0.82104 16.3967 1.20478 1.28193 
16.5976 3.40159 3.42546 18.3526 3.3405 1.16946 18.492 1.3315 3.38405 
20.1276 1.18448 1.25654 22.2316 1.33055 3.44268 23.7911 1.33561 1.29006 
20.3043 3.29279 3.4191 23.9509 -0.796082 -0.811296 25.5749 1.20237 3.34289 
25.866 -1.04216 1.3463 27.5906 1.11787 1.23908 27.5387 3.37472 3.2506 
25.4726 1.27433 41.5409 31.2324 1.28198 1.2326 33.1316 41.5706 1.20429 
31.4132 3.42953 3.2714 29.4782 -0.87564 1.22422 29.5382 1.34484 3.38507 
1.57705 -0.988605 3.29937 35.0907 1.43902 1.09999 36.795 1.19124 3.22582 
36.6649 41.4585 1.12884 5.50399 5.39521 1.13985 1.68505 5.43556 1.05893 
7.21694 3.19348 1.23058 9.11511 5.48807 1.24621 10.7234 5.50365 41.4336 
12.8107 5.37415 1.183 10.8405 7.59693 1.15264 14.7313 7.54206 1.21933 
10.9484 5.26531 3.34954 14.6622 5.47923 3.43641 16.4381 5.4349 1.27308 
20.261 5.342 1.04092 16.5105 7.6042 -0.868698 18.393 5.47463 -0.921048 
22.1794 3.38408 1.21784 23.8386 5.55792 1.15116 21.9001 7.74895 1.10045 
22.0654 5.42177 3.29699 29.5882 3.34539 1.05949 25.6752 3.38696 1.25781 
27.3991 5.60423 1.30023 25.7933 7.44881 1.22579 29.5205 7.59441 1.23216 
29.6178 5.35998 41.5175 33.041 3.3684 1.08721 31.6743 5.56888 1.28721 
31.545 7.47097 3.32633 33.1554 5.47992 41.3896 36.961 3.23908 1.13474 
35.2126 5.39329 1.03094 36.7168 5.34406 41.3032 35.1251 7.61008 -1.14963 
38.6572 3.19818 41.2319 5.41125 7.58361 3.27161 1.66407 7.44493 41.2888 
3.69389 7.45096 1.17871 5.41217 9.54862 0.948887 3.75987 9.51493 41.1707 
39.0339 9.69624 1.1051 38.9339 11.4632 41.1759 7.36734 7.56643 1.27865 
9.0599 9.66494 1.07417 7.2759 11.8959 1.0645 11.1393 11.8225 1.16966 
9.22516 7.4911 3.3313 7.29144 9.67416 41.366 12.6958 9.64717 1.0551 
12.9753 11.6025 3.28434 12.7888 7.48982 3.3912 14.6588 9.47703 3.39801 
18.1978 7.54537 1.25443 16.5316 9.50037 1.19257 18.3881 9.4762 -0.82998 
18.2541 9.59396 3.4596 16.4492 11.649 3.38347 19.9133 9.58778 1.29845 
21.984 11.7591 1.30772 22.0133 9.64541 3.24964 24.0728 9.54615 1.27562 
20.1542 11.7164 3.2205 22.0564 9.62935 41.3831 27.5367 9.64257 1.21679 
29.575 11.8271 1.13958 29.4206 9.5887 41.4999 27.7699 7.59521 41.4267 
27.7725 11.7293 -0.84638 31.426 7.59698 41.2852 33.5389 7.53295 1.15173 
31.2994 9.70164 1.32252 33.2248 11.9636 1.08788 33.0864 9.77459 41.5007 
36.8359 7.71654 1.07067 35.0069 9.8311 1.15493 36.9686 9.63545 3.12661 
5.46989 11.9682 3.22704 3.75072 11.9615 1.04978 5.45448 14.0159 1.19246 
3.49614 13.8968 3.26602 9.2644 13.91 1.11649 7.20687 13.8239 41.3274 
11.1199 13.8737 3.05621 12.9907 13.907 1.02953 10.9796 16.1899 1.19536 
14.7422 11.7675 1.14028 14.8805 13.8466 -0.870982 14.6458 13.7629 3.4071 
18.3229 11.7975 1.28961 16.6226 13.7227 1.38516 20.1324 13.9765 1.14591 
24.0062 13.8646 1.19492 23.9735 15.9414 41.3524 23.9841 11.7912 -0.904813 
21.9894 13.8618 3.45327 25.764 11.7316 1.16484 27.7574 13.8482 1.24537 
29.5672 13.891 3.37221 25.7844 13.9694 41.3135 31.3229 14.0042 1.19402 
33.3277 15.9129 1.19101 33.2263 13.9314 41.3426 29.689 13.8737 41.3672 
31.2421 11.7335 41.3641 37.1439 11.7059 1.19361 34.9985 11.6709 41.308 
1.73459 14.011 1.12425 35.3422 13.8442 1.13203 3.63928 16.1755 1.16979 
5.55345 18.1934 1.27153 1.81749 18.1086 1.17392 3.66674 18.1612 41.5047 
5.34928 15.8603 3.26351 3.64815 18.2349 3.18242 7.20435 16.0433 1.16336 
8.97829 18.1447 1.211 10.9015 18.112 -0.673935 9.10256 16.0315 3.18521 
12.8576 16.1085 3.42008 14.8031 15.9507 1.23382 12.9455 18.1793 1.12002 
14.7476 18.0698 3.31021 12.9991 16.2385 -0.86491 14.7695 18.2262 -0.885851 
18.2675 15.9694 1.50209 16.5793 18.1886 1.21743 20.2245 17.9794 1.28276 
18.4007 20.2535 1.0795 18.431 18.3017 41.3866 16.3838 15.8808 3.4565 
16.5606 20.3881 -0.991141 22.1341 15.8286 1.34911 22.0618 20.2205 1.11863 
23.9255 18.1396 1.21645 22.1123 18.0806 41.6087 25.9357 15.9984 1.29824 
27.5901 18.0397 1.44272 25.9089 20.2559 1.18983 29.6508 18.2067 3.37365 
27.4752 19.9761 3.58275 29.5111 16.1244 1.07 31.4785 18.0089 1.27748 
29.4504 20.0759 1.15566 31.443 20.2623 3.20502 36.9066 16.118 1.18485 
2.04681 16.207 3.25731 35.0256 18.2496 1.2661 36.9655 20.2879 1.18794 
35.153 20.3929 -1.05423 35.1957 16.1828 3.25849 35.1659 15.9684 41.4616 
38.7844 16.0508 41.3527 3.76426 20.3339 1.25476 5.54135 22.5242 1.31509 
5.47214 24.5142 -1.03222 5.44848 20.3031 3.39627 3.63922 22.4266 3.50612 
7.34162 20.4282 1.23127 9.15787 20.2189 -0.88467 9.22812 22.3805 1.17081 
7.37835 24.418 1.19836 7.16469 22.4229 41.4147 10.956 20.303 1.13034 
11.011 22.2998 -1.14561 12.9082 20.1738 -0.782838 12.7425 20.3407 3.34155 
12.8327 22.1962 1.24951 14.7872 20.2115 1.28278 14.6396 22.2699 3.41236 
16.5563 22.2326 1.2004 18.517 24.3804 1.19725 16.5322 20.2046 3.30757 
18.46 22.3228 3.3288 18.5578 22.3986 -1.01897 20.2918 22.2818 1.18828 
22.0969 22.3015 3.26513 21.8889 22.2585 -1.02011 23.9972 22.3336 1.17938 
22.0501 24.305 1.21775 24.0558 24.5086 3.2217 20.176 24.5626 41.2646 
27.7173 20.1614 -1.03931 27.8057 22.3179 1.10912 27.7717 24.4087 -1.01009 
29.2866 22.0195 3.39333 25.8537 22.3472 3.24355 27.9842 24.4719 3.19144 
33.2665 20.2795 1.0079 31.2863 22.2958 1.21461 29.813 24.4887 1.09686 
33.2445 22.1363 3.38216 38.7959 22.4394 1.20873 1.80014 20.3124 41.2351 
35.1534 22.3454 1.24283 35.0128 24.5298 41.4339 3.73015 24.5621 1.23569 
5.53375 26.4575 1.32066 3.66589 26.5105 41.6449 3.60931 28.7035 1.16258 
9.27146 24.4377 41.4032 9.02589 26.7389 1.3313 7.06712 28.7626 1.26169 
7.3014 26.5498 3.38757 7.3426 26.471 -0.909757 11.1178 24.2701 1.12046 
12.81 24.4384 3.42114 14.6203 24.4626 1.35559 12.7577 26.5939 1.27393 
14.7373 28.8492 1.27865 11.0552 28.7166 1.3389 10.8844 26.4998 3.28112 
16.4885 24.442 3.44576 16.5469 26.4026 1.21492 18.5202 28.6873 1.32631 
20.2839 24.5247 3.34785 16.5616 24.357 41.573 18.4171 26.5448 -0.863348 
20.3333 26.4646 1.16946 24.023 26.5667 1.32127 22.0658 28.5808 1.05432 
20.0692 28.6403 -0.872903 26.0287 24.5309 1.31352 27.7243 26.6033 1.34137 
25.8008 28.5839 1.39526 25.8701 26.5867 3.49594 33.259 24.4364 1.37666 
29.7703 26.7129 3.28057 31.4415 26.8399 1.25967 33.2501 26.5316 -0.603732 
33.4574 28.6674 1.35587 33.1325 26.5901 3.51386 31.2884 24.3999 3.4412 
37.1392 24.49 1.42752 38.7622 24.5238 -0.851916 1.76572 26.5646 1.28932 
35.1619 26.5014 1.29247 36.8374 26.6151 -0.888359 5.4968 30.7907 1.18045 
38.7166 30.7957 1.31273 38.9399 28.6454 3.41424 3.58621 30.9213 3.36843 
9.05951 30.7536 1.21515 7.36768 32.8549 1.20817 7.45037 30.7128 -0.949085 
9.23298 33.0851 41.5212 9.26195 33.0381 3.27819 13.1134 28.7545 -0.870969 
12.9065 30.8451 1.22084 12.7284 28.6273 3.31217 14.5981 32.982 1.14154 
14.7815 30.6381 3.35466 11.0201 30.7289 41.4904 14.8145 30.789 -0.938361 
16.6149 30.6583 1.46027 18.555 30.8929 3.24572 16.4419 32.7504 3.26954 
20.3155 28.4744 3.36387 18.4152 32.9171 1.36644 20.2543 30.8261 1.2161 
24.021 30.7366 1.25667 23.9683 32.8887 -0.868512 27.7798 30.8466 1.42297 
29.6456 30.7882 3.471 27.7416 28.7224 3.36579 25.7989 30.6838 3.4393 
29.6107 28.7472 1.32382 31.632 28.8108 3.33109 29.562 32.9495 1.26612 
31.3297 30.7574 1.23359 33.1558 32.8513 1.32566 33.2102 30.8618 -0.741467 
36.9294 28.692 1.33139 35.143 30.9266 1.10079 35.0159 32.9741 41.5267 
36.8891 32.8503 1.22754 36.7956 30.6472 3.3495 3.54703 32.9889 1.20502 
1.63729 32.8946 41.2898 5.34602 35.0503 1.14284 3.63661 37.2369 1.20137 
5.52069 37.132 3.2483 9.33924 35.0457 1.21543 7.36276 35.0648 41.6022 
9.03257 37.2732 3.41715 11.1099 34.9651 41.1784 11.0587 32.628 1.273 
12.9358 35.1457 1.32324 14.8835 35.0635 3.36823 14.7797 35.0315 41.5075 
11.2326 37.1645 1.26038 12.8465 37.0002 -0.92205 14.7938 37.3463 1.19836 
12.8413 37.2171 3.56709 16.5455 34.9791 1.16349 16.5648 32.7567 -0.693223 
18.3584 35.0091 3.48636 20.1466 37.3176 3.26077 20.2801 37.3017 -0.90586 
22.221 32.9302 1.33088 20.1771 35.0771 1.2189 23.9378 34.9688 1.29107 
23.9173 37.1969 3.50448 22.1861 37.111 1.25495 22.1981 35.0979 3.52895 
25.9289 32.8073 0.99764 27.5586 35.1427 1.29724 29.4972 34.9216 3.34255 
31.4313 35.192 1.21766 33.3072 35.0835 -0.973002 29.4998 37.2526 1.25507 
1.71285 35.0916 1.28454 34.8578 35.0714 1.07818 34.9621 37.3221 -0.927049 
1.75713 33.0216 3.3904 35.0846 37.2576 3.27915 5.30089 39.3418 1.10549 
7.1441 -1.03545 1.13009 9.15859 41.2812 3.18372 7.25023 37.1959 1.21973 
9.24926 39.2476 1.29529 7.14337 39.3592 3.44934 7.27593 39.2003 41.3979 
12.8532 -0.999855 -0.894897 14.55 -0.909248 1.10191 12.9737 39.283 1.34126 
10.9801 39.0565 3.38427 10.9888 39.1101 -0.849617 14.8192 39.1931 -0.890604 
14.6847 39.3386 3.39279 18.4589 37.3041 1.10184 16.614 37.1389 3.13888 
16.4877 39.3027 1.21823 18.2405 -0.974315 1.22926 18.5192 39.4112 3.22962 
16.4405 -0.847161 -0.922578 22.2112 -0.785677 1.30909 20.4008 39.4418 1.3274 
20.4883 -0.837783 3.45441 23.8339 39.282 1.26092 22.249 39.3668 3.42887 
20.4002 -0.598549 41.3986 25.6423 37.1903 1.29352 27.6558 39.2364 1.19392 
25.815 39.4366 3.22558 33.2277 37.2878 1.15931 31.4311 39.3348 1.2751 
33.0658 39.2255 3.25553 31.2941 37.0793 3.39477 38.8344 39.3319 1.1955 
36.8717 37.1951 1.25391 34.9524 39.292 1.28418 36.9363 39.2657 3.27756 
34.824 -1.23787 41.348 3.5422 1.28932 3.30663 5.51965 1.13178 5.41434 
38.5599 1.38452 5.29321 5.41344 -0.936671 3.30999 5.49322 3.26872 7.53206 
9.09473 1.15839 5.39508 7.20893 3.43263 5.43666 10.8042 3.4067 5.32108 
7.21996 1.21 7.5792 9.04123 3.33862 7.61399 14.6282 1.14323 3.53821 
12.7925 -1.00925 3.27328 12.7763 1.22699 5.45125 10.8439 1.28256 7.4407 
12.8044 3.15906 3.51337 14.6324 3.49249 5.53299 14.7057 -0.673201 5.533 
[...]
POINT_DATA 4000
FIELD FieldData 6
id 1 4000 int
8 2 3 4 43 1 445 5 12 
51 11 406 16 55 410 10 14 20 
457 59 418 24 422 28 461 25 426 
27 32 469 26 36 35 473 31 430 
401 40 438 39 48 44 47 52 50 
56 91 95 450 454 60 64 97 58 
63 68 103 462 71 67 72 107 111 
70 75 76 513 74 79 80 78 117 
41 485 81 83 88 82 84 121 87 
92 127 131 489 86 96 533 493 494 
99 100 98 498 537 104 143 502 108 
541 102 112 151 110 109 149 113 115 
116 155 114 119 120 518 525 123 128 
522 132 126 530 136 171 135 134 534 
139 140 144 148 185 145 542 147 152 
550 146 156 195 154 150 153 159 157 
124 160 163 168 164 162 565 562 167 
172 170 569 573 175 176 574 173 174 
179 180 184 219 178 577 217 183 223 
188 182 187 192 227 590 629 191 196 
231 633 199 561 200 239 237 597 197 
161 203 208 245 605 602 207 209 212 
247 206 211 210 213 613 216 215 614 
220 259 617 618 218 224 622 222 228 
263 665 261 229 232 269 630 626 669 
235 236 271 634 204 201 240 277 243 
248 242 283 249 252 287 646 246 251 
653 255 256 295 291 650 657 260 299 
661 257 258 264 268 303 301 267 272 
307 666 275 670 276 274 315 674 673 
279 241 244 280 278 288 284 681 682 
292 327 286 329 729 293 296 693 335 
694 290 294 300 698 737 701 339 304 
308 345 312 710 709 706 311 713 351 
316 355 314 319 320 357 359 718 323 
321 328 363 765 332 326 769 330 331 
336 734 334 371 373 375 773 340 337 
738 781 381 343 344 348 785 383 742 
347 352 750 356 354 391 324 360 397 
721 797 368 7 409 367 372 766 366 
13 15 376 770 370 374 774 379 777 
380 19 778 17 23 384 421 388 782 
21 387 392 786 395 396 794 793 364 
399 400 798 37 402 408 404 405 845 
412 447 451 806 849 414 413 416 810 
453 455 415 420 459 818 465 424 822 
428 865 825 427 432 467 471 869 826 
433 830 434 436 435 475 873 440 479 
437 838 442 481 441 443 448 842 444 
483 446 449 452 850 456 853 497 460 
458 501 499 861 463 464 862 468 505 
466 509 470 472 474 476 515 874 478 
477 480 519 877 482 488 523 885 486 
491 487 492 886 490 495 496 535 500 
539 898 503 504 508 545 905 506 507 
511 512 510 514 516 551 517 484 557 
520 559 957 521 528 524 527 526 529 
532 571 531 536 930 934 538 540 937 
938 977 585 543 544 548 546 589 547 
949 549 552 950 553 593 555 554 556 
954 993 558 560 958 563 568 564 566 
609 567 572 969 966 611 575 570 576 
970 973 974 621 578 580 581 579 584 
981 582 583 588 625 1025 586 587 592 
627 1029 591 594 595 596 994 635 1033 
598 599 600 997 603 645 608 604 601 
643 1045 607 606 612 647 649 1006 610 
1010 1049 615 616 1014 619 620 1017 623 
624 628 1065 631 632 671 667 1026 1030 
1069 636 675 1073 638 639 637 640 677 
1037 642 648 1085 1042 689 652 691 1050 
651 656 1093 655 654 658 660 659 664 
1057 662 663 668 705 1061 1062 707 1066 
672 1070 676 641 644 678 679 680 1077 
685 683 688 1082 687 686 692 1086 1129 
690 696 695 697 1097 700 699 745 703 
702 704 743 708 1105 1102 712 751 1109 
1106 753 711 714 715 716 755 1113 1114 
717 719 684 720 759 757 723 725 722 
728 724 763 1125 727 726 732 730 731 
733 736 735 775 771 1173 741 739 740 
779 1138 1145 744 783 748 746 749 747 
1146 752 787 1149 754 756 795 1150 758 
760 799 403 762 768 761 1162 801 407 
767 772 1166 1169 813 411 776 1174 417 
780 419 817 821 425 423 784 1182 788 
1185 789 429 792 1186 790 431 791 796 
439 764 800 1161 802 808 804 841 1205 
812 807 1209 1249 1206 816 811 814 815 
851 1253 820 1218 859 1257 824 863 1222 
828 829 832 1230 1269 831 834 871 836 
837 840 839 843 844 848 847 846 852 
887 891 854 855 856 1293 895 1254 1250 
897 857 860 858 1258 899 1297 864 903 
868 901 1262 1301 866 870 867 872 909 
913 875 876 878 879 880 919 882 881 
883 888 884 1321 1285 889 892 927 931 
893 890 896 894 1294 1333 900 939 1337 
1298 902 904 1302 908 941 1341 907 906 
911 912 951 910 914 915 916 955 1314 
917 918 920 921 1317 925 922 923 928 
1325 965 926 929 932 967 1326 933 936 
971 935 1330 940 944 1338 945 942 985 
943 948 1345 946 947 952 987 953 956 
995 959 924 960 1397 961 962 963 968 
964 1003 1001 1005 1009 972 1409 1013 976 
1011 1370 975 1015 978 980 979 984 1378 
1019 982 983 988 1385 986 989 992 1429 
990 991 996 1035 1394 1031 1433 998 999 
1000 1398 1002 1008 1004 1043 1007 1012 1047 
1051 1053 1016 1453 1021 1020 1018 1024 1418 
1023 1022 1063 1422 1028 1425 1027 1032 1034 
1036 1434 1039 1401 1038 1040 1079 1477 1041 
1048 1044 1083 1046 1052 1054 1056 1055 1493 
1058 1060 1059 1099 1457 1458 1064 1461 1068 
1071 1067 1072 1509 1075 1074 1076 1513 1115 
1473 1470 1078 1080 1117 1119 1517 1081 1088 
1123 1084 1521 1485 1089 1087 1092 1091 1486 
1094 1090 1096 1095 1494 1533 1131 1501 1100 
1101 1098 1498 1497 1103 1104 1108 1545 1107 
1111 1506 1110 1112 1549 1151 1116 1553 1153 
1155 1118 1120 1159 1157 1557 1122 1124 1128 
1165 1565 1121 1163 1522 1126 1529 1127 1132 
1167 1133 1130 1135 1136 1530 1134 1534 1175 
1141 1137 1140 1177 1139 1577 1179 1142 1143 
1144 1183 1148 1189 1147 1152 1546 1550 1589 
1154 1191 1193 1156 1195 1158 1160 1199 1558 
1597 803 805 1168 1164 809 1172 1171 1170 
1573 1176 1570 1574 819 1181 1180 1178 1184 
1221 823 1582 1188 1187 827 1586 1192 1229 
833 1190 1194 835 1196 1590 1201 1197 1198 
1200 1202 1208 1203 1605 1212 1606 1610 1609 
1210 1216 1214 1215 1217 1220 1259 1617 1219 
1618 1265 1224 1228 1226 1227 1267 1626 1232 
1669 1231 1273 1234 1236 1275 1271 1673 1634 
1204 1238 1240 1277 1237 1637 1281 1245 1243 
1242 1248 1642 1244 1645 1247 1246 1252 1289 
1291 1649 1646 1653 1255 1251 1256 1654 1693 
1260 1658 1697 1261 1263 1264 1305 1268 1662 
1266 1666 1307 1272 1709 1270 1313 1670 1311 
1274 1276 1674 1241 1279 1278 1280 1282 1283 
1288 1286 1287 1292 1327 1290 1296 1295 1335 
1694 1299 1701 1300 1303 1304 1343 1705 1308 
1702 1306 1309 1310 1347 1312 1351 1706 1353 
1315 1316 1319 1318 1284 1320 1757 1322 1323 
1328 1365 1722 1765 1363 1329 1369 1332 1367 
1726 1334 1373 1331 1336 1371 1730 1340 1339 
1344 1342 1741 1383 1348 1349 1350 1346 1387 
1352 1750 1354 1355 1391 1356 1395 1358 1359 
1357 1324 1360 1399 1362 1368 1405 1805 1762 
1403 1366 1372 1407 1411 1770 1413 1374 1376 
1375 1415 1813 1377 1417 1380 1379 1381 1419 
1382 1384 1423 1388 1782 1825 1386 1427 1389 
1392 1790 1829 1390 1793 1393 1396 1435 1431 
1833 1361 1364 1400 1439 1801 1445 1441 1402 
1408 1802 1404 1443 1406 1449 1410 1412 1447 
1451 1414 1416 1853 1420 1421 1424 1459 1465 
1428 1865 1426 1826 1432 1830 1467 1869 1430 
1436 1873 1475 1834 1438 1437 1440 1479 1838 
1442 1448 1444 1842 1481 1446 1452 1450 1456 
1454 1455 1893 1495 1460 1464 1499 1901 1897 
1505 1463 1462 1468 1503 1862 1471 1466 1469 
1472 1507 1474 1476 1515 1478 1480 1878 1877 
1482 1483 1488 1525 1885 1487 1489 1492 1490 
1527 1491 1496 1531 1894 1500 1541 1504 1539 
1941 1502 1543 1508 1945 1547 1512 1949 1551 
1906 1909 1510 1514 1511 1910 1516 1555 1953 
1914 1519 1484 1518 1520 1561 1523 1528 1524 
1965 1526 1569 1532 1567 1571 1926 1536 1535 
1575 1538 1537 1540 1544 1579 1542 1585 1942 
1583 1548 1946 1587 1552 1591 1950 1554 1556 
1593 1954 1559 1560 1599 1958 1562 1563 1568 
1962 1566 1207 1572 1211 1213 1576 1578 1581 
1580 1981 1584 1977 1978 1225 1223 1982 1621 
1625 1588 1985 1986 1592 1629 1233 1235 1595 
1594 1596 1994 1564 1598 1239 1600 1602 1608 
1641 2002 1601 1603 1612 1607 1647 1614 1616 
1655 1615 1620 2017 1624 1619 2018 2021 1657 
1622 2022 1628 1623 1627 2026 1632 1631 1633 
1630 1636 1675 1638 1604 1640 2038 1679 2037 
1681 1643 1648 1683 2045 2085 1689 1652 2049 
1651 2046 1650 1656 2054 1661 1659 2061 1660 
2097 1664 2058 1665 1663 1668 2062 1667 2066 
1672 1711 1713 1671 1676 1715 1677 1644 1678 
1680 1719 1685 1725 1682 1688 1686 1690 1687 
1692 2086 2089 1691 1696 2090 1695 1699 1700 
1698 2098 2141 1703 1704 1708 2105 1707 2106 
1712 1747 1710 1714 1751 1716 1755 2110 1684 
1717 1718 1720 1759 1721 1761 1723 1728 2165 
1763 1729 1727 1732 2129 2126 1767 1733 1735 
1731 1736 1734 2130 1738 1737 1740 2137 1739 
1744 1777 1745 1743 1742 1783 1748 1746 1749 
1789 1752 1791 2189 1753 1754 1756 1795 2193 
1758 1724 1760 1768 1764 2205 1769 1766 1772 
2209 1809 2169 1807 1811 1773 1771 1776 1774 
1775 1815 1780 1778 1779 1784 1817 1781 1785 
1788 1823 2221 1786 1787 1792 1794 1796 2194 
1831 2233 1797 1798 1799 1800 1839 2237 1845 
1803 1808 2245 2202 1843 2241 1806 1849 1812 
1847 1810 1814 1816 1851 1855 1821 1819 1820 
1818 1824 1857 1822 1828 1827 1832 1871 2226 
2230 1835 1836 2234 1837 1804 1840 2238 1841 
1879 2277 1881 1848 1883 2242 1850 1889 1846 
1852 1887 1856 1854 2293 2254 1861 1860 1858 
1859 1864 1899 2261 2258 1905 1863 1868 2265 
2262 1866 1867 1870 1872 2270 1907 1875 1911 
1913 1874 1876 2273 1915 2274 1844 2281 1880 
1917 2278 1882 1888 1884 1925 1923 1929 1886 
1892 1891 1890 1927 2286 2289 2290 1896 1895 
1935 2294 1898 1900 1904 2298 1937 1939 2341 
2301 2297 1902 1903 1943 1908 2302 2305 1947 
1912 2349 2306 2309 2310 1916 2353 1951 1955 
1918 1957 1919 1920 1959 2317 1922 1921 1928 
1963 2325 2365 1930 1969 1932 2326 1931 1933 
1973 1936 2330 1934 1975 2333 1938 1940 1944 
2338 1979 2337 1948 2345 2385 2346 1952 2389 
1987 1991 1956 1995 2350 1924 1960 2397 2005 
1968 1964 1966 1611 1967 1972 1613 1970 1974 
1971 1976 1980 2378 1983 1984 2382 1988 2025 
1989 2386 1990 1992 2029 1993 1635 1996 2393 
2394 1997 1961 1639 1998 1999 2000 2361 2008 
2043 2402 2006 2009 2010 2012 2047 2007 2449 
2053 2014 2013 2016 2011 2413 2020 2057 2019 
2024 2418 2421 2461 2417 2422 2028 2465 2030 
2032 2031 2034 2033 2036 2073 2075 2041 2004 
2040 2079 2077 2042 2048 2044 2083 2485 2081 
2050 2052 2450 2091 2087 2489 2051 2056 2055 
2095 2454 2060 2059 2458 2063 2065 2064 2068 
2462 2501 2067 2069 2072 2509 2466 2070 2074 
2071 2470 2111 2113 2076 2078 2117 2080 2119 
2478 2477 2082 2088 2084 2525 2123 2482 2092 
2529 2490 2093 2096 2094 2494 2100 2099 2498 
2101 2505 2102 2103 2104 2108 2109 2107 2506 
2112 2149 2147 2115 2151 2114 2116 2153 2118 
2120 2157 2159 2122 2121 2125 2128 2522 2127 
2132 2526 2530 2167 2133 2134 2131 2136 2135 
2175 2138 2139 2140 2144 2179 2145 2142 2185 
2143 2148 2545 2585 2146 2187 2152 2150 2155 
2154 2156 2195 2554 2158 2124 2160 2199 2162 
2201 2163 2168 2203 2166 2172 2171 2569 2173 
2170 2174 2176 2213 2211 2215 2177 2178 2180 
2219 2181 2182 2183 2184 2581 2188 2223 2582 
2186 2190 2191 2229 2192 2196 2633 2590 2197 
2161 2164 2198 2200 2208 2243 2204 2206 2249 
2207 2212 2247 2210 2610 2253 2216 2251 2214 
2217 2220 2218 2224 2617 2657 2618 2225 2222 
2622 2228 2665 2227 2626 2232 2629 2271 2669 
2231 2235 2236 2275 2630 2634 2239 2240 2677 
2279 2638 2248 2283 2645 2642 2681 2246 2252 
2646 2250 2255 2256 2295 2650 2654 2257 2260 
2697 2259 2264 2299 2658 2661 2263 2662 2268 
2267 2269 2266 2272 2311 2666 2313 2276 2713 
2315 2674 2244 2280 2678 2319 2717 2282 2285 
2288 2284 2321 2685 2287 2291 2292 2689 2331 
2686 2296 2335 2694 2693 2733 2300 2304 2698 
2741 2339 2303 2702 2308 2343 2701 2705 2307 
2706 2312 2351 2749 2314 2316 2355 2753 2714 
2318 2320 2359 2322 2323 2328 2329 2327 2332 
2369 2726 2334 2336 2734 2377 2381 2340 2344 
2738 2342 2348 2785 2347 2352 2750 2789 2746 
2354 2356 2357 2324 2358 2360 2399 2758 2362 
2001 2003 2363 2368 2765 2364 2762 2366 2371 
2367 2372 2770 2370 2374 2375 2373 2376 2773 
2015 2774 2380 2379 2384 2023 2425 2383 2782 
2388 2387 2027 2786 2392 2390 2035 2391 2395 
2396 2039 2398 2400 2405 2408 2404 2403 2401 
2441 2801 2805 2409 2410 2406 2412 2411 2810 
2407 2416 2414 2853 2420 2818 2419 2424 2428 
2463 2822 2821 2825 2429 2426 2467 2427 2432 
2830 2430 2434 2473 2436 2438 2440 2838 2479 
2437 2877 2445 2443 2442 2448 2483 2451 2447 
2446 2452 2487 2491 2453 2456 2455 2495 2850 
2457 2460 2459 2897 2499 2858 2861 2464 2862 
2468 2503 2469 2507 2472 2909 2869 2474 2475 
2471 2476 2515 2874 2444 2480 2517 2488 2882 
2925 2486 2492 2890 2493 2496 2533 2933 2893 
2894 2497 2500 2898 2502 2905 2504 2543 2941 
2902 2508 2549 2906 2547 2512 2513 2511 2510 
2551 2514 2913 2516 2553 2481 2518 2519 2557 
2484 2520 2559 2957 2565 2523 2528 2524 2563 
2961 2527 2532 2567 2929 2969 2531 2536 2535 
2534 2575 2930 2537 2538 2577 2541 2539 2540 
2544 2938 2542 2942 2548 2583 2546 2587 2589 
2552 2550 2555 2556 2593 2950 2561 2521 2558 
2560 2599 2958 2562 2568 2564 2603 2962 2566 
2609 2572 2607 2573 2570 2574 2571 2576 2613 
2621 2578 2579 2580 2584 2619 2982 2623 2588 
2625 2586 2592 2631 2986 2591 2595 2594 2596 
2635 3033 2993 2994 2637 2601 2597 2598 2600 
2639 2998 3037 2605 2602 2608 2643 2611 2606 
2612 3010 3013 2615 2616 2614 3014 2620 2624 
3018 3022 2628 2663 3065 3025 2627 3026 2667 
2632 2671 2636 3073 2604 2640 2641 3038 2648 
2683 2649 2647 3049 2652 3046 2653 2651 2655 
2656 2695 2659 2660 2664 3101 3057 3058 3061 
3062 2668 2670 3066 2672 2707 2709 2711 3109 
2673 2675 2676 2715 2679 2644 2680 2719 3117 
2682 2688 2723 3082 2687 2692 3089 3090 2691 
2690 2696 3094 3133 2699 2700 2704 3098 2745 
2703 3102 2708 3145 2712 3149 3106 2710 2716 
2755 2751 2684 2718 2720 2757 3157 2721 2725 
2722 2728 2724 2731 2729 2727 2732 3126 2730 
3129 3130 2736 2735 2775 2737 2740 2739 2744 
3138 2742 2743 2783 2748 3181 2747 3146 2752 
3189 2754 2793 2756 3154 2791 2795 2759 2760 
2763 2768 2764 3161 3165 2767 3169 2769 2766 
2772 2809 2813 2771 2776 3170 2415 3174 2777 
2778 2817 2779 2780 3178 2781 2423 2784 2788 
2790 2787 3186 2829 2431 2792 2433 3190 2794 
2435 2796 3193 2797 2798 2439 2761 2799 2800 
3197 3198 2802 2808 2803 3202 3205 2806 2812 
2807 2811 2814 2816 3210 2815 3214 2820 2824 
2819 3218 3217 2865 3222 2828 2826 3226 2832 
2831 3229 3230 2873 2833 2871 2834 2836 2835 
3234 2841 2804 2840 2842 3245 2843 2845 2848 
2883 2849 2847 2846 2852 3249 2851 2856 3250 
2855 2854 3253 3254 2857 2860 2859 2864 2899 
3257 3258 2901 3265 2863 2868 2903 3262 2866 
2867 3266 2872 2870 2875 3270 2911 2876 2915 
3274 2844 2879 2878 2880 2917 2919 2885 2888 
2884 2923 2889 2886 2887 2892 3286 2891 2896 
2895 3294 2900 3301 2904 2945 3302 2943 2908 
3305 2907 3309 2947 2912 2914 2910 2916 2881 
2918 2920 2959 3318 2922 2965 2921 2928 3322 
3361 2926 2927 2932 2967 2934 2931 2936 3330 
2935 2973 2939 2937 2940 3337 2985 2944 2948 
2949 2946 2989 2952 2991 2953 2955 2951 2954 
2956 2924 2960 2997 3358 3397 2963 2968 2964 
3362 3005 3405 2966 3009 2972 2971 3011 3370 
2974 2975 2970 2976 3015 3413 3373 2978 3021 
2977 2979 2980 3019 2981 2983 2984 2988 3029 
2987 3389 2992 3031 3390 3386 2995 2990 2996 
3035 3433 3394 2999 3000 3039 3003 3002 3008 
3445 3006 3007 3012 3051 3409 3053 3016 3414 
3055 3453 3017 3020 3417 3024 3418 3023 3421 
3063 3028 3027 3429 3426 3030 3032 3067 3034 
3430 3036 3075 3001 3041 3004 3040 3079 3045 
3043 3042 3048 3485 3050 3449 3047 3052 3446 
3489 3054 3056 3454 3091 3493 3095 3060 3059 
3064 3458 3461 3457 3068 3105 3465 3103 3505 
3107 3069 3469 3072 3070 3074 3071 3470 3076 
3115 3077 3078 3044 3080 3081 3119 3085 3083 
3088 3525 3482 3086 3087 3092 3131 3486 3093 
3096 3490 3135 3494 3097 3137 3099 3100 3497 
3104 3501 3502 3108 3143 3545 3147 3110 3111 
3112 3549 3151 3506 3153 3113 3114 3116 3513 
3121 3118 3084 3120 3159 3518 3123 3125 3122 
3128 3522 3124 3127 3132 3167 3529 3526 3173 
3136 3134 3534 3139 3140 3144 3179 3581 3541 
3538 3141 3142 3542 3148 3183 3187 3546 3152 
3550 3589 3150 3155 3156 3191 3593 3553 3158 
3521 3160 3557 3163 3561 3162 3168 3164 3166 
3172 3171 3570 3573 3176 3175 3574 3213 3221 
3177 3180 3184 3578 3577 3182 3185 2823 3585 
3582 3188 2827 3586 3192 3590 3195 3194 3196 
3233 2837 3199 2839 3200 3208 3204 3605 3209 
3206 3212 3610 3211 3247 3207 3606 3216 3613 
3614 3220 3617 3224 3618 3621 3225 3223 3622 
3228 3665 3625 3267 3232 3231 3626 3669 3236 
3630 3238 3240 3279 3239 3243 3242 3248 3246 
3252 3287 3251 3256 3255 3295 3654 3657 3261 
3260 3259 3264 3658 3299 3661 3263 3662 3268 
3701 3269 3271 3272 3670 3311 3666 3273 3275 
3276 3277 3278 3241 3244 3280 3281 3319 3641 
3285 3283 3282 3288 3321 3325 3323 3291 3289 
3292 3327 3290 3293 3693 3296 3694 3297 3298 
3697 3300 3304 3303 3308 3702 3745 3306 3307 
3312 3349 3313 3314 3315 3310 3316 3355 3317 
3357 3284 3320 3359 3718 3365 3328 3363 3329 
3326 3332 3726 3729 3331 3335 3333 3336 3730 
3334 3375 3734 3341 3377 3338 3339 3340 3344 
3379 3381 3343 3345 3342 3348 3385 3346 3347 
3350 3352 3750 3391 3353 3351 3393 3354 3356 
3793 3324 3360 3399 3758 3368 3364 3403 3765 
3762 3369 3367 3366 3372 3770 3371 3376 3773 
3374 3411 3380 3378 3778 3419 3382 3383 3384 
3388 3387 3392 3431 3395 3790 3396 3435 3794 
3401 3398 3400 3797 3798 3805 3402 3408 3443 
3441 3410 3407 3406 3412 3849 3809 3806 3416 
3451 3415 3814 3420 3424 3857 3821 3425 3422 
3423 3428 3861 3463 3825 3865 3427 3432 3826 
3434 3471 3436 3873 3833 3834 3438 3437 3404 
3439 3440 3479 3837 3481 3442 3448 3444 3842 
3447 3452 3850 3450 3456 3491 3455 3893 3459 
3460 3464 3858 3462 3862 3468 3466 3869 3467 
3866 3509 3472 3511 3473 3474 3475 3476 3477 
3478 3480 3517 3878 3881 3483 3488 3885 3487 
3492 3886 3889 3533 3496 3495 3894 3531 3535 
3498 3897 3500 3499 3537 3503 3504 3902 3508 
3905 3510 3507 3547 3512 3551 3906 3910 3514 
3515 3516 3555 3917 3519 3484 3520 3918 3523 
3528 3524 3925 3922 3527 3532 3926 3929 3530 
3933 3536 3934 3930 3540 3539 3544 3543 3583 
3548 3945 3942 3941 3946 3552 3554 3556 3954 
3591 3595 3993 3558 3559 3957 3560 3958 3921 
3565 3201 3562 3203 3563 3568 3564 3567 3569 
3566 3572 3215 3571 3576 3575 3579 3580 3219 
3978 3584 3981 3588 3985 3982 3227 3587 3592 
3986 3989 3629 3633 3235 3594 3596 3237 3598 
3599 3597 3637 3600 3997 3602 3608 3603 3643 
3604 6 3609 3649 3612 3607 9 3616 3651 
3655 53 3611 3620 18 3619 22 3624 3623 
3628 30 3632 3671 3667 3631 3634 3673 34 
3636 3635 3638 38 3640 3679 3601 45 42 
85 3685 3645 3642 3648 3683 49 46 3689 
3647 3646 3652 3650 93 3653 3656 54 3695 
3691 57 3659 3660 3699 61 62 101 65 
3663 3664 3668 105 3709 69 66 3672 3711 
3713 3674 73 3675 3676 3677 3678 77 3644 
3680 3681 3719 3682 3688 3684 3723 89 3690 
3687 3686 3692 129 90 94 3696 3735 3698 
3741 3700 3739 137 3705 3703 141 3704 3708 
106 3706 3707 3747 3710 3749 3712 3751 3753 
3714 3715 3716 3717 118 3720 3721 125 122 
3725 3722 3728 3724 165 3763 3727 3732 130 
3733 133 3731 3736 3775 138 3777 3781 3738 
3737 177 3740 3744 3779 3742 3743 142 3785 
3748 3783 3746 3789 3752 3754 3755 3756 3795 
3761 3757 158 3759 3760 3768 3803 3769 3766 
169 3767 166 3772 3807 3813 3771 3776 3774 
3811 3780 181 3819 3782 3784 3788 221 186 
190 3786 3787 189 3792 3831 194 193 3791 
3796 233 198 3799 3764 3800 3801 205 202 
3802 3808 3845 3812 3810 3815 3853 3816 214 
3855 3817 3818 3820 3824 3859 225 3822 3823 
3828 226 3830 3829 3827 3832 3871 230 234 
3835 3836 3875 238 3804 3838 3839 3840 285 
3843 3848 3841 3844 289 3846 3847 3852 253 
250 3851 3856 3854 254 3895 3901 3860 3864 
3899 265 262 3863 3868 266 309 3867 270 
3872 3909 3907 273 3870 3874 3876 3877 3879 
3880 282 281 325 3882 3883 3888 3884 3887 
3892 3931 3890 3891 3896 3935 333 3937 297 
3900 3898 298 3904 302 341 3903 305 3908 
306 3911 310 3912 3947 313 3913 3915 3914 
3916 3955 3951 353 317 3919 318 3920 3959 
322 3923 3928 3927 3969 3932 3967 3971 3936 
3975 3939 3940 338 3938 3944 3977 3979 342 
3943 3983 3948 385 349 389 3949 346 3952 
350 393 3950 3953 3956 3991 3995 358 3924 
3960 365 361 362 3965 3962 3963 3961 3968 
3964 369 3970 3966 3972 3973 3976 3974 3615 
377 3980 378 382 3984 3988 390 3627 3987 
386 29 3992 394 33 3990 3994 3996 398 
3998 3639 3999 4000 
type 1 4000 int
1 1 1 1 1 1 1 1 1 
1 1 1 1 1 1 1 1 1 
1 1 1 1 1 1 1 1 1 
1 1 1 1 1 1 1 1 1 
1 1 1 1 1 1 1 1 1 
1 1 1 1 1 1 1 1 1 
1 1 1 1 1 1 1 1 1 
1 1 1 1 1 1 1 1 1 
1 1 1 1 1 1 1 1 1 
1 1 1 1 1 1 1 1 1 
1 1 1 1 1 1 1 1 1 
1 1 1 1 1 1 1 1 1 
1 1 1 1 1 1 1 1 1 
1 1 1 1 1 1 1 1 1 
1 1 1 1 1 1 1 1 1 
1 1 1 1 1 1 1 1 1 
1 1 1 1 1 1 1 1 1 
1 1 1 1 1 1 1 1 1 
1 1 1 1 1 1 1 1 1 
1 1 1 1 1 1 1 1 1 
1 1 1 1 1 1 1 1 1 
1 1 1 1 1 1 1 1 1 
1 1 1 1 1 1 1 1 1 
1 1 1 1 1 1 1 1 1 
1 1 1 1 1 1 1 1 1 
1 1 1 1 1 1 1 1 1 
1 1 1 1 1 1 1 1 1 
1 1 1 1 1 1 1 1 1 
1 1 1 1 1 1 1 1 1 
1 1 1 1 1 1 1 1 1 
1 1 1 1 1 1 1 1 1 