# vtk DataFile Version 4.0
Generated by LAMMPS
ASCII
DATASET POLYDATA
POINTS 4000 float
5.4846 1.18862 1.3546 3.62241 1.21897 -0.945518 3.56831 -0.80298 1.16543 
1.65589 1.20655 1.23844 3.64676 3.24747 1.23349 1.78968 -0.662458 -0.949595 
5.28842 3.37052 3.37235 5.37816 -0.821013 -0.812537 9.1274 1.42258 1.21225 
10.9571 3.42603 1.1716 10.9746 -0.679285 1.04112 7.33852 1.21158 3.3435 
12.964 1.44431 1.12874 14.8825 3.55831 1.33753 11.1177 1.3723 3.32457 
11.0076 1.36966 -0.849166 14.629 1.53194 -0.820664 16.4795 1.23889 1.31852 
16.4941 3.35833 3.49709 18.3192 3.24518 1.35304 18.2577 1.13562 3.58894 
20.2335 1.23477 1.30671 22.0586 1.24762 3.36037 24.0436 1.35679 1.29112 
19.9945 3.4829 3.23142 24.1393 -0.811235 -0.747537 25.7014 1.20873 3.37529 
25.7213 -0.924239 1.33034 27.7202 1.10416 1.35039 27.6683 3.28538 3.38345 
25.7752 1.28242 -0.699228 31.4966 1.32132 1.10641 33.2202 -0.959164 1.32345 
31.3357 3.31251 3.25743 29.552 -1.06782 1.35891 29.668 1.11741 3.24557 
38.6837 -0.889973 3.21525 34.9485 1.25842 1.28332 37.0785 1.40092 3.44989 
36.898 -0.9568 1.14825 5.24698 5.55562 1.11499 1.75381 5.44521 1.28398 
7.07517 3.45159 1.1342 9.11183 5.57253 1.16116 10.9047 5.59863 -0.893855 
12.9294 5.63222 1.10497 11.097 7.53532 1.10312 14.8831 7.6679 1.22532 
11.0142 5.4357 3.32508 14.7656 5.56519 3.34973 16.5638 5.53268 1.20829 
20.0186 5.64302 1.18656 16.4805 7.61338 -0.820617 18.2354 5.45534 -1.02414 
21.9877 3.41742 1.17526 23.9459 5.54234 1.32176 22.08 7.49758 1.44228 
22.0716 5.49044 3.30012 29.4904 3.50186 1.12692 25.9119 3.37293 1.08803 
27.8046 5.49939 1.17001 25.9102 7.67584 1.31948 29.5737 7.75789 1.2901 
29.5911 5.56155 -1.06836 33.1919 3.36062 1.24247 31.4476 5.57031 1.1181 
31.3404 7.42511 3.41344 33.2618 5.5716 -1.10514 36.9461 3.36556 1.23664 
35.1179 5.45874 1.2275 37.0744 5.38043 -0.872762 35.3681 7.54518 -0.893294 
38.7463 3.33093 -0.813636 5.48053 7.52249 3.38593 1.57627 7.57973 -1.0262 
3.5201 7.60345 1.17291 5.43199 9.78287 1.22872 3.49643 9.57764 -0.83699 
1.76297 9.67537 1.44613 1.82845 11.7813 -0.761097 7.32131 7.7246 1.38398 
9.14416 9.75284 1.23659 7.35995 11.6617 1.24545 11.0686 11.8848 1.39227 
9.347 7.57149 3.20179 7.22109 9.70922 -0.890329 12.8905 9.78528 1.29121 
12.8491 11.8175 3.41253 12.98 7.70581 3.24297 14.8143 9.66096 3.45301 
18.3846 7.66664 1.36076 16.6621 9.78154 1.36999 18.4362 9.664 -0.786123 
18.3621 9.71759 3.45362 16.5577 11.8224 3.39178 20.2961 9.7007 1.39549 
22.1939 12.0318 1.24028 22.2206 9.60177 3.37973 24.0726 9.77096 1.42686 
20.458 11.7067 3.41363 22.2487 9.81897 -0.738272 27.5997 9.73218 1.35059 
29.5614 11.7893 1.21167 29.475 9.78513 -0.777211 27.8325 7.61715 -0.910511 
27.6343 11.6947 -0.814881 31.317 7.67811 -0.784249 33.3629 7.66479 1.25569 
31.4469 9.74422 1.16482 33.183 11.7702 1.33132 33.2959 9.68139 -0.893105 
37.067 7.56977 1.2295 35.1489 9.71694 1.18025 36.8941 9.69989 3.41377 
5.41261 11.9151 3.46499 3.61229 11.8859 1.27844 5.76148 13.9411 1.40636 
3.50358 13.8466 3.4439 9.14293 13.9014 1.28967 7.25041 13.8351 -1.00508 
10.9624 13.8882 3.42702 12.8937 13.8789 1.35508 10.9784 16.0224 1.25841 
14.693 11.9349 1.11124 14.9644 13.8464 -0.795537 14.7452 13.8688 3.38547 
18.5222 11.7276 1.37006 16.7027 13.8203 1.15472 20.2709 13.9192 1.15318 
23.9942 14.0464 1.11301 23.8936 16.1787 -0.916194 23.9604 12.0175 -0.989127 
22.149 13.8856 3.36726 25.9277 11.8118 1.32408 27.4479 13.9143 1.01387 
29.4892 13.8665 3.27487 25.7689 14.1297 -0.917352 31.2762 13.9374 1.12234 
33.3278 16.0759 1.13742 33.2234 13.9816 -0.831752 29.5072 13.8731 -0.776785 
31.4416 11.8894 -0.937831 37.0076 11.7851 1.31746 35.0867 11.8719 -0.770208 
38.6631 13.9242 1.44971 35.0889 13.8984 1.31937 3.66789 15.847 1.33128 
5.32091 17.9556 1.30618 1.746 18.0105 1.34452 3.43203 17.9049 -0.766509 
5.44629 15.934 3.34511 3.67977 18.0882 3.49233 7.44336 16.0369 1.33788 
9.10932 18.3618 1.25689 11.0623 18.25 -0.729521 9.25248 16.0091 3.34018 
12.8599 15.9365 3.41521 14.6424 15.9253 1.24365 12.7173 18.0526 1.3806 
14.4827 17.9996 3.4331 12.7405 15.9717 -0.766758 14.4812 18.2842 -0.83955 
18.3509 15.9561 1.22895 16.4024 17.9817 1.29845 20.2209 18.0786 1.40319 
18.2299 20.1552 1.31557 18.6179 18.2537 -0.693862 16.4712 16.0259 3.39066 
16.6271 20.2099 -0.747519 21.9969 16.1579 1.22792 22.1106 20.4732 1.37262 
24.0087 18.2101 1.30962 22.0216 18.1205 -0.791182 25.8708 16.2529 1.10477 
27.8503 18.1683 1.34618 25.8713 20.3611 1.3853 29.6736 18.1237 3.40918 
27.5721 20.3669 3.40669 29.5661 15.8809 1.15691 31.3108 18.0877 1.23507 
29.4685 20.1661 1.29755 31.5605 20.1702 3.222 36.8329 15.9947 1.45879 
38.87 15.8863 3.44056 34.9571 18.1909 1.38787 36.7808 20.2371 1.37843 
35.0651 20.1207 -0.870783 34.9701 16.058 3.3965 35.0911 15.7985 -0.783294 
38.7315 15.8696 -0.603234 3.36905 20.2017 1.2344 5.41853 22.253 1.35643 
5.38046 24.2729 -0.850352 5.35962 20.2256 3.34233 3.42935 22.3151 3.3706 
7.28732 20.3514 1.29374 9.19491 20.1858 -0.785289 9.10739 22.5442 1.26545 
7.09991 24.3134 1.22978 7.17607 22.2042 -0.900431 10.8846 20.3789 1.42788 
10.9922 22.2846 -0.810676 12.7965 20.2051 -0.710671 12.935 20.1656 3.30532 
12.9038 22.3727 1.25827 14.8259 20.2255 1.38322 14.6626 22.3707 3.44719 
16.6267 22.3844 1.30169 18.3364 24.5497 1.43418 16.5878 20.3136 3.48217 
18.3704 22.4011 3.49265 18.3733 22.291 -0.808311 20.1555 22.3056 1.35643 
21.9835 22.5063 3.49922 22.0566 22.5527 -0.930714 24.0258 22.3441 1.32525 
21.9794 24.5069 1.46662 24.0026 24.5088 3.40395 20.0869 24.3621 -0.608776 
27.555 20.2845 -1.07756 27.6266 22.388 1.21443 27.7337 24.6191 -1.0498 
29.5406 22.1716 3.48851 25.7913 22.406 3.46192 27.7084 24.4158 3.11679 
33.3377 20.333 1.21799 31.2228 22.3119 1.2193 29.4681 24.5894 1.09245 
33.2324 22.2781 3.4877 38.7442 22.2566 1.29111 38.6731 20.2827 -0.853088 
35.077 22.4752 1.14414 35.0016 24.4096 -0.933634 3.48932 24.3647 1.02979 
5.34077 26.3897 1.15249 3.5195 26.5708 -0.943 3.57088 28.5121 1.17444 
9.10726 24.4392 -0.809106 9.02892 26.3681 1.34751 7.37475 28.6331 1.18528 
7.1438 26.5034 3.42799 7.41334 26.5935 -0.730626 11.1426 24.5079 1.25989 
12.9239 24.49 3.36023 14.6034 24.5033 1.12719 12.9465 26.6151 1.06434 
14.517 28.889 1.10939 11.0659 28.7497 1.14462 11.0501 26.6713 3.2829 
16.353 24.5233 3.30617 16.4981 26.7648 1.1717 18.5203 28.6294 1.15577 
20.2678 24.4249 3.45859 16.5567 24.3922 -0.728124 18.467 26.5195 -0.782512 
20.2655 26.5519 1.24543 23.8782 26.5079 1.33581 22.1413 28.7555 1.18541 
20.1675 28.7487 -0.954669 25.8985 24.5342 1.21091 27.4857 26.6802 1.20761 
25.5394 28.6721 1.24679 25.8038 26.6874 3.41835 33.1348 24.4788 1.26422 
29.4809 26.559 3.08585 31.5002 26.6213 1.19833 33.2124 26.63 -0.981635 
33.3144 28.7239 1.07861 33.1919 26.467 3.23887 31.3792 24.3506 3.40713 
37.0096 24.2918 1.15259 38.8542 24.4484 -1.03348 38.525 26.4928 1.15807 
35.0906 26.5758 1.00292 36.9262 26.3991 -1.10787 5.2581 30.6536 1.16872 
1.811 30.6884 1.13329 1.66148 28.8267 3.26047 3.59247 30.7745 3.31212 
9.00119 30.7159 1.38055 7.07042 32.885 1.2376 7.05849 30.9267 -0.7023 
9.08539 32.8765 -0.624869 9.02945 32.8736 3.26088 12.7918 28.753 -0.999398 
12.7552 30.8902 1.17596 12.8684 28.7528 3.34827 14.7385 32.907 1.14242 
14.5848 30.7591 3.21587 10.8856 30.7695 -0.802518 14.6208 30.7466 -0.920758 
16.6018 30.9526 1.24424 18.3667 30.6874 3.2742 16.4915 32.9461 3.3393 
20.4011 28.6999 3.32676 18.4306 32.9211 1.17318 20.2619 30.943 1.32624 
23.839 30.8992 1.24011 23.952 33.0097 -0.923732 27.4477 30.8627 1.28677 
29.36 30.7896 3.16696 27.6475 28.7963 3.2046 25.7574 30.807 3.33784 
29.2729 28.6241 1.05784 31.327 28.712 3.19431 29.4178 32.8542 1.2762 
31.2993 30.7663 1.23705 33.2128 32.8914 1.11544 33.2106 30.6429 -1.02525 
36.9207 28.6904 1.34088 34.9968 30.7677 1.22655 35.0908 32.6416 -0.838977 
36.8053 32.7418 1.24043 36.7127 30.7085 3.30888 3.61484 32.9656 1.26916 
1.44187 32.9443 -0.833714 5.30481 35.308 1.15433 3.40431 37.1923 1.32962 
5.31192 37.0446 3.26311 9.16532 34.9968 1.19621 7.26317 35.0643 -0.800873 
9.15294 37.2593 3.32629 10.8781 35.2589 -0.860501 11.0037 33.0616 1.20843 
12.9287 35.1121 1.2063 14.7648 35.066 3.41305 14.7692 35.115 -0.93658 
11.0831 37.2496 1.27203 12.9266 37.3004 -0.932018 14.5824 37.1815 1.39267 
12.6594 37.3237 3.44753 16.4568 35.0625 1.30899 16.5172 33.0085 -0.974439 
18.2268 34.8809 3.31675 20.0588 37.0847 3.24071 20.1907 37.1242 -0.890344 
22.0173 33.0537 1.22408 20.1048 35.1078 1.31442 24.0232 35.0173 1.36307 
23.9644 36.9493 3.35475 22.1362 37.0575 1.39128 21.9282 35.0829 3.54585 
25.7379 32.9674 1.14941 27.6757 35.0962 1.22041 29.5212 34.8591 3.40302 
31.3847 35.0016 1.29541 33.3848 34.9516 -0.797587 29.5198 37.1185 1.28892 
38.6271 34.9082 1.0891 35.0245 34.9163 1.39918 35.0331 37.1521 -0.78001 
38.795 32.8664 3.24307 35.1472 37.1187 3.34187 5.42793 39.4032 1.28053 
7.30427 41.5256 1.03339 9.22126 41.4399 3.20676 7.35971 37.2411 1.09743 
9.18151 39.3732 1.28444 7.27625 39.266 3.21676 7.17191 39.431 -0.92867 
12.8061 41.4936 -1.06998 14.5839 41.4609 1.07564 12.8667 39.239 1.13112 
11.093 39.4435 3.10804 10.9863 39.2468 -0.997521 14.5894 39.397 -0.837719 
14.5667 39.1041 3.36203 18.3376 37.1281 1.03323 16.5374 37.0451 3.46336 
16.4404 39.4133 1.39775 18.4345 41.2506 1.31352 18.4062 39.1676 3.36372 
16.3709 41.47 -0.935334 22.0551 41.3072 1.39496 20.2341 39.0622 1.34839 
20.1431 41.3006 3.49325 23.9763 39.1366 1.30449 22.1006 39.197 3.33697 
20.329 41.4473 -0.729809 25.9235 37.0201 1.21869 27.6909 39.0767 1.30725 
25.9354 39.1425 3.46947 33.2417 37.143 1.26235 31.3748 39.2511 1.21898 
33.1314 39.1635 3.39012 31.1561 37.1592 3.48989 38.813 39.155 1.35023 
36.8732 37.149 1.19604 35.0234 39.2795 1.22569 36.9307 39.0996 3.47318 
34.94 41.4837 -0.881471 3.51807 1.02581 3.21809 5.31275 1.08218 5.34354 
1.71115 1.11493 5.49965 5.64275 -0.913171 3.35637 5.45415 3.34401 7.42179 
9.19941 1.49181 5.42235 7.18594 3.33066 5.43069 11.0953 3.52295 5.37326 
7.28818 1.13142 7.54777 9.13002 3.37542 7.6615 14.65 1.22456 3.39204 
12.7076 -0.849337 3.4062 12.8456 1.33855 5.48531 11.1595 1.11939 7.71431 
[...]
POINT_DATA 4000
FIELD FieldData 6
id 1 4000 int
8 2 3 4 43 1 445 5 12 
51 11 406 16 55 410 10 14 20 
457 59 418 24 422 28 461 25 426 
27 32 469 26 36 35 473 31 430 
401 40 438 39 48 44 47 52 50 
56 91 95 450 454 60 64 97 58 
63 68 103 462 71 67 72 107 111 
70 75 76 513 74 79 80 78 117 
41 485 81 83 88 82 84 121 87 
92 127 131 489 86 96 533 493 494 
99 100 98 498 537 104 143 502 108 
541 102 112 151 110 109 149 113 115 
116 155 114 119 120 518 525 123 128 
522 132 126 530 136 171 135 134 534 
139 140 144 148 185 145 542 147 152 
550 146 156 195 154 150 153 159 157 
124 160 163 168 164 162 565 562 167 
172 170 569 573 175 176 574 173 174 
179 180 184 219 178 577 217 183 223 
188 182 187 192 227 590 629 191 196 
231 633 199 561 200 239 237 597 197 
161 203 208 245 605 602 207 209 212 
247 206 211 210 213 613 216 215 614 
220 259 617 618 218 224 622 222 228 
263 665 261 229 232 269 630 626 669 
235 236 271 634 204 201 240 277 243 
248 242 283 249 252 287 646 246 251 
653 255 256 295 291 650 657 260 299 
661 257 258 264 268 303 301 267 272 
307 666 275 670 276 274 315 674 673 
279 241 244 280 278 288 284 681 682 
292 327 286 329 729 293 296 693 335 
694 290 294 300 698 737 701 339 304 
308 345 312 710 709 706 311 713 351 
316 355 314 319 320 357 359 718 323 
321 328 363 765 332 326 769 330 331 
336 734 334 371 373 375 773 340 337 
738 781 381 343 344 348 785 383 742 
347 352 750 356 354 391 324 360 397 
721 797 368 7 409 367 372 766 366 
13 15 376 770 370 374 774 379 777 
380 19 778 17 23 384 421 388 782 
21 387 392 786 395 396 794 793 364 
399 400 798 37 402 408 404 405 845 
412 447 451 806 849 414 413 416 810 
453 455 415 420 459 818 465 424 822 
428 865 825 427 432 467 471 869 826 
433 830 434 436 435 475 873 440 479 
437 838 442 481 441 443 448 842 444 
483 446 449 452 850 456 853 497 460 
458 501 499 861 463 464 862 468 505 
466 509 470 472 474 476 515 874 478 
477 480 519 877 482 488 523 885 486 
491 487 492 886 490 495 496 535 500 
539 898 503 504 508 545 905 506 507 
511 512 510 514 516 551 517 484 557 
520 559 957 521 528 524 527 526 529 
532 571 531 536 930 934 538 540 937 
938 977 585 543 544 548 546 589 547 
949 549 552 950 553 593 555 554 556 
954 993 558 560 958 563 568 564 566 
609 567 572 969 966 611 575 570 576 
970 973 974 621 578 580 581 579 584 
981 582 583 588 625 1025 586 587 592 
627 1029 591 594 595 596 994 635 1033 
598 599 600 997 603 645 608 604 601 
643 1045 607 606 612 647 649 1006 610 
1010 1049 615 616 1014 619 620 1017 623 
624 628 1065 631 632 671 667 1026 1030 
1069 636 675 1073 638 639 637 640 677 
1037 642 648 1085 1042 689 652 691 1050 
651 656 1093 655 654 658 660 659 664 
1057 662 663 668 705 1061 1062 707 1066 
672 1070 676 641 644 678 679 680 1077 
685 683 688 1082 687 686 692 1086 1129 
690 696 695 697 1097 700 699 745 703 
702 704 743 708 1105 1102 712 751 1109 
1106 753 711 714 715 716 755 1113 1114 
717 719 684 720 759 757 723 725 722 
728 724 763 1125 727 726 732 730 731 
733 736 735 775 771 1173 741 739 740 
779 1138 1145 744 783 748 746 749 747 
1146 752 787 1149 754 756 795 1150 758 
760 799 403 762 768 761 1162 801 407 
767 772 1166 1169 813 411 776 1174 417 
780 419 817 821 425 423 784 1182 788 
1185 789 429 792 1186 790 431 791 796 
439 764 800 1161 802 808 804 841 1205 
812 807 1209 1249 1206 816 811 814 815 
851 1253 820 1218 859 1257 824 863 1222 
828 829 832 1230 1269 831 834 871 836 
837 840 839 843 844 848 847 846 852 
887 891 854 855 856 1293 895 1254 1250 
897 857 860 858 1258 899 1297 864 903 
868 901 1262 1301 866 870 867 872 909 
913 875 876 878 879 880 919 882 881 
883 888 884 1321 1285 889 892 927 931 
893 890 896 894 1294 1333 900 939 1337 
1298 902 904 1302 908 941 1341 907 906 
911 912 951 910 914 915 916 955 1314 
917 918 920 921 1317 925 922 923 928 
1325 965 926 929 932 967 1326 933 936 
971 935 1330 940 944 1338 945 942 985 
943 948 1345 946 947 952 987 953 956 
995 959 924 960 1397 961 962 963 968 
964 1003 1001 1005 1009 972 1409 1013 976 
1011 1370 975 1015 978 980 979 984 1378 
1019 982 983 988 1385 986 989 992 1429 
990 991 996 1035 1394 1031 1433 998 999 
1000 1398 1002 1008 1004 1043 1007 1012 1047 
1051 1053 1016 1453 1021 1020 1018 1024 1418 
1023 1022 1063 1422 1028 1425 1027 1032 1034 
1036 1434 1039 1401 1038 1040 1079 1477 1041 
1048 1044 1083 1046 1052 1054 1056 1055 1493 
1058 1060 1059 1099 1457 1458 1064 1461 1068 
1071 1067 1072 1509 1075 1074 1076 1513 1115 
1473 1470 1078 1080 1117 1119 1517 1081 1088 
1123 1084 1521 1485 1089 1087 1092 1091 1486 
1094 1090 1096 1095 1494 1533 1131 1501 1100 
1101 1098 1498 1497 1103 1104 1108 1545 1107 
1111 1506 1110 1112 1549 1151 1116 1553 1153 
1155 1118 1120 1159 1157 1557 1122 1124 1128 
1165 1565 1121 1163 1522 1126 1529 1127 1132 
1167 1133 1130 1135 1136 1530 1134 1534 1175 
1141 1137 1140 1177 1139 1577 1179 1142 1143 
1144 1183 1148 1189 1147 1152 1546 1550 1589 
1154 1191 1193 1156 1195 1158 1160 1199 1558 
1597 803 805 1168 1164 809 1172 1171 1170 
1573 1176 1570 1574 819 1181 1180 1178 1184 
1221 823 1582 1188 1187 827 1586 1192 1229 
833 1190 1194 835 1196 1590 1201 1197 1198 
1200 1202 1208 1203 1605 1212 1606 1610 1609 
1210 1216 1214 1215 1217 1220 1259 1617 1219 
1618 1265 1224 1228 1226 1227 1267 1626 1232 
1669 1231 1273 1234 1236 1275 1271 1673 1634 
1204 1238 1240 1277 1237 1637 1281 1245 1243 
1242 1248 1642 1244 1645 1247 1246 1252 1289 
1291 1649 1646 1653 1255 1251 1256 1654 1693 
1260 1658 1697 1261 1263 1264 1305 1268 1662 
1266 1666 1307 1272 1709 1270 1313 1670 1311 
1274 1276 1674 1241 1279 1278 1280 1282 1283 
1288 1286 1287 1292 1327 1290 1296 1295 1335 
1694 1299 1701 1300 1303 1304 1343 1705 1308 
1702 1306 1309 1310 1347 1312 1351 1706 1353 
1315 1316 1319 1318 1284 1320 1757 1322 1323 
1328 1365 1722 1765 1363 1329 1369 1332 1367 
1726 1334 1373 1331 1336 1371 1730 1340 1339 
1344 1342 1741 1383 1348 1349 1350 1346 1387 
1352 1750 1354 1355 1391 1356 1395 1358 1359 
1357 1324 1360 1399 1362 1368 1405 1805 1762 
1403 1366 1372 1407 1411 1770 1413 1374 1376 
1375 1415 1813 1377 1417 1380 1379 1381 1419 
1382 1384 1423 1388 1782 1825 1386 1427 1389 
1392 1790 1829 1390 1793 1393 1396 1435 1431 
1833 1361 1364 1400 1439 1801 1445 1441 1402 
1408 1802 1404 1443 1406 1449 1410 1412 1447 
1451 1414 1416 1853 1420 1421 1424 1459 1465 
1428 1865 1426 1826 1432 1830 1467 1869 1430 
1436 1873 1475 1834 1438 1437 1440 1479 1838 
1442 1448 1444 1842 1481 1446 1452 1450 1456 
1454 1455 1893 1495 1460 1464 1499 1901 1897 
1505 1463 1462 1468 1503 1862 1471 1466 1469 
1472 1507 1474 1476 1515 1478 1480 1878 1877 
1482 1483 1488 1525 1885 1487 1489 1492 1490 
1527 1491 1496 1531 1894 1500 1541 1504 1539 
1941 1502 1543 1508 1945 1547 1512 1949 1551 
1906 1909 1510 1514 1511 1910 1516 1555 1953 
1914 1519 1484 1518 1520 1561 1523 1528 1524 
1965 1526 1569 1532 1567 1571 1926 1536 1535 
1575 1538 1537 1540 1544 1579 1542 1585 1942 
1583 1548 1946 1587 1552 1591 1950 1554 1556 
1593 1954 1559 1560 1599 1958 1562 1563 1568 
1962 1566 1207 1572 1211 1213 1576 1578 1581 
1580 1981 1584 1977 1978 1225 1223 1982 1621 
1625 1588 1985 1986 1592 1629 1233 1235 1595 
1594 1596 1994 1564 1598 1239 1600 1602 1608 
1641 2002 1601 1603 1612 1607 1647 1614 1616 
1655 1615 1620 2017 1624 1619 2018 2021 1657 
1622 2022 1628 1623 1627 2026 1632 1631 1633 
1630 1636 1675 1638 1604 1640 2038 1679 2037 
1681 1643 1648 1683 2045 2085 1689 1652 2049 
1651 2046 1650 1656 2054 1661 1659 2061 1660 
2097 1664 2058 1665 1663 1668 2062 1667 2066 
1672 1711 1713 1671 1676 1715 1677 1644 1678 
1680 1719 1685 1725 1682 1688 1686 1690 1687 
1692 2086 2089 1691 1696 2090 1695 1699 1700 
1698 2098 2141 1703 1704 1708 2105 1707 2106 
1712 1747 1710 1714 1751 1716 1755 2110 1684 
1717 1718 1720 1759 1721 1761 1723 1728 2165 
1763 1729 1727 1732 2129 2126 1767 1733 1735 
1731 1736 1734 2130 1738 1737 1740 2137 1739 
1744 1777 1745 1743 1742 1783 1748 1746 1749 
1789 1752 1791 2189 1753 1754 1756 1795 2193 
1758 1724 1760 1768 1764 2205 1769 1766 1772 
2209 1809 2169 1807 1811 1773 1771 1776 1774 
1775 1815 1780 1778 1779 1784 1817 1781 1785 
1788 1823 2221 1786 1787 1792 1794 1796 2194 
1831 2233 1797 1798 1799 1800 1839 2237 1845 
1803 1808 2245 2202 1843 2241 1806 1849 1812 
1847 1810 1814 1816 1851 1855 1821 1819 1820 
1818 1824 1857 1822 1828 1827 1832 1871 2226 
2230 1835 1836 2234 1837 1804 1840 2238 1841 
1879 2277 1881 1848 1883 2242 1850 1889 1846 
1852 1887 1856 1854 2293 2254 1861 1860 1858 
1859 1864 1899 2261 2258 1905 1863 1868 2265 
2262 1866 1867 1870 1872 2270 1907 1875 1911 
1913 1874 1876 2273 1915 2274 1844 2281 1880 
1917 2278 1882 1888 1884 1925 1923 1929 1886 
1892 1891 1890 1927 2286 2289 2290 1896 1895 
1935 2294 1898 1900 1904 2298 1937 1939 2341 
2301 2297 1902 1903 1943 1908 2302 2305 1947 
1912 2349 2306 2309 2310 1916 2353 1951 1955 
1918 1957 1919 1920 1959 2317 1922 1921 1928 
1963 2325 2365 1930 1969 1932 2326 1931 1933 
1973 1936 2330 1934 1975 2333 1938 1940 1944 
2338 1979 2337 1948 2345 2385 2346 1952 2389 
1987 1991 1956 1995 2350 1924 1960 2397 2005 
1968 1964 1966 1611 1967 1972 1613 1970 1974 
1971 1976 1980 2378 1983 1984 2382 1988 2025 
1989 2386 1990 1992 2029 1993 1635 1996 2393 
2394 1997 1961 1639 1998 1999 2000 2361 2008 
2043 2402 2006 2009 2010 2012 2047 2007 2449 
2053 2014 2013 2016 2011 2413 2020 2057 2019 
2024 2418 2421 2461 2417 2422 2028 2465 2030 
2032 2031 2034 2033 2036 2073 2075 2041 2004 
2040 2079 2077 2042 2048 2044 2083 2485 2081 
2050 2052 2450 2091 2087 2489 2051 2056 2055 
2095 2454 2060 2059 2458 2063 2065 2064 2068 
2462 2501 2067 2069 2072 2509 2466 2070 2074 
2071 2470 2111 2113 2076 2078 2117 2080 2119 
2478 2477 2082 2088 2084 2525 2123 2482 2092 
2529 2490 2093 2096 2094 2494 2100 2099 2498 
2101 2505 2102 2103 2104 2108 2109 2107 2506 
2112 2149 2147 2115 2151 2114 2116 2153 2118 
2120 2157 2159 2122 2121 2125 2128 2522 2127 
2132 2526 2530 2167 2133 2134 2131 2136 2135 
2175 2138 2139 2140 2144 2179 2145 2142 2185 
2143 2148 2545 2585 2146 2187 2152 2150 2155 
2154 2156 2195 2554 2158 2124 2160 2199 2162 
2201 2163 2168 2203 2166 2172 2171 2569 2173 
2170 2174 2176 2213 2211 2215 2177 2178 2180 
2219 2181 2182 2183 2184 2581 2188 2223 2582 
2186 2190 2191 2229 2192 2196 2633 2590 2197 
2161 2164 2198 2200 2208 2243 2204 2206 2249 
2207 2212 2247 2210 2610 2253 2216 2251 2214 
2217 2220 2218 2224 2617 2657 2618 2225 2222 
2622 2228 2665 2227 2626 2232 2629 2271 2669 
2231 2235 2236 2275 2630 2634 2239 2240 2677 
2279 2638 2248 2283 2645 2642 2681 2246 2252 
2646 2250 2255 2256 2295 2650 2654 2257 2260 
2697 2259 2264 2299 2658 2661 2263 2662 2268 
2267 2269 2266 2272 2311 2666 2313 2276 2713 
2315 2674 2244 2280 2678 2319 2717 2282 2285 
2288 2284 2321 2685 2287 2291 2292 2689 2331 
2686 2296 2335 2694 2693 2733 2300 2304 2698 
2741 2339 2303 2702 2308 2343 2701 2705 2307 
2706 2312 2351 2749 2314 2316 2355 2753 2714 
2318 2320 2359 2322 2323 2328 2329 2327 2332 
2369 2726 2334 2336 2734 2377 2381 2340 2344 
2738 2342 2348 2785 2347 2352 2750 2789 2746 
2354 2356 2357 2324 2358 2360 2399 2758 2362 
2001 2003 2363 2368 2765 2364 2762 2366 2371 
2367 2372 2770 2370 2374 2375 2373 2376 2773 
2015 2774 2380 2379 2384 2023 2425 2383 2782 
2388 2387 2027 2786 2392 2390 2035 2391 2395 
2396 2039 2398 2400 2405 2408 2404 2403 2401 
2441 2801 2805 2409 2410 2406 2412 2411 2810 
2407 2416 2414 2853 2420 2818 2419 2424 2428 
2463 2822 2821 2825 2429 2426 2467 2427 2432 
2830 2430 2434 2473 2436 2438 2440 2838 2479 
2437 2877 2445 2443 2442 2448 2483 2451 2447 
2446 2452 2487 2491 2453 2456 2455 2495 2850 
2457 2460 2459 2897 2499 2858 2861 2464 2862 
2468 2503 2469 2507 2472 2909 2869 2474 2475 
2471 2476 2515 2874 2444 2480 2517 2488 2882 
2925 2486 2492 2890 2493 2496 2533 2933 2893 
2894 2497 2500 2898 2502 2905 2504 2543 2941 
2902 2508 2549 2906 2547 2512 2513 2511 2510 
2551 2514 2913 2516 2553 2481 2518 2519 2557 
2484 2520 2559 2957 2565 2523 2528 2524 2563 
2961 2527 2532 2567 2929 2969 2531 2536 2535 
2534 2575 2930 2537 2538 2577 2541 2539 2540 
2544 2938 2542 2942 2548 2583 2546 2587 2589 
2552 2550 2555 2556 2593 2950 2561 2521 2558 
2560 2599 2958 2562 2568 2564 2603 2962 2566 
2609 2572 2607 2573 2570 2574 2571 2576 2613 
2621 2578 2579 2580 2584 2619 2982 2623 2588 
2625 2586 2592 2631 2986 2591 2595 2594 2596 
2635 3033 2993 2994 2637 2601 2597 2598 2600 
2639 2998 3037 2605 2602 2608 2643 2611 2606 
2612 3010 3013 2615 2616 2614 3014 2620 2624 
3018 3022 2628 2663 3065 3025 2627 3026 2667 
2632 2671 2636 3073 2604 2640 2641 3038 2648 
2683 2649 2647 3049 2652 3046 2653 2651 2655 
2656 2695 2659 2660 2664 3101 3057 3058 3061 
3062 2668 2670 3066 2672 2707 2709 2711 3109 
2673 2675 2676 2715 2679 2644 2680 2719 3117 
2682 2688 2723 3082 2687 2692 3089 3090 2691 
2690 2696 3094 3133 2699 2700 2704 3098 2745 
2703 3102 2708 3145 2712 3149 3106 2710 2716 
2755 2751 2684 2718 2720 2757 3157 2721 2725 
2722 2728 2724 2731 2729 2727 2732 3126 2730 
3129 3130 2736 2735 2775 2737 2740 2739 2744 
3138 2742 2743 2783 2748 3181 2747 3146 2752 
3189 2754 2793 2756 3154 2791 2795 2759 2760 
2763 2768 2764 3161 3165 2767 3169 2769 2766 
2772 2809 2813 2771 2776 3170 2415 3174 2777 
2778 2817 2779 2780 3178 2781 2423 2784 2788 
2790 2787 3186 2829 2431 2792 2433 3190 2794 
2435 2796 3193 2797 2798 2439 2761 2799 2800 
3197 3198 2802 2808 2803 3202 3205 2806 2812 
2807 2811 2814 2816 3210 2815 3214 2820 2824 
2819 3218 3217 2865 3222 2828 2826 3226 2832 
2831 3229 3230 2873 2833 2871 2834 2836 2835 
3234 2841 2804 2840 2842 3245 2843 2845 2848 
2883 2849 2847 2846 2852 3249 2851 2856 3250 
2855 2854 3253 3254 2857 2860 2859 2864 2899 
3257 3258 2901 3265 2863 2868 2903 3262 2866 
2867 3266 2872 2870 2875 3270 2911 2876 2915 
3274 2844 2879 2878 2880 2917 2919 2885 2888 
2884 2923 2889 2886 2887 2892 3286 2891 2896 
2895 3294 2900 3301 2904 2945 3302 2943 2908 
3305 2907 3309 2947 2912 2914 2910 2916 2881 
2918 2920 2959 3318 2922 2965 2921 2928 3322 
3361 2926 2927 2932 2967 2934 2931 2936 3330 
2935 2973 2939 2937 2940 3337 2985 2944 2948 
2949 2946 2989 2952 2991 2953 2955 2951 2954 
2956 2924 2960 2997 3358 3397 2963 2968 2964 
3362 3005 3405 2966 3009 2972 2971 3011 3370 
2974 2975 2970 2976 3015 3413 3373 2978 3021 
2977 2979 2980 3019 2981 2983 2984 2988 3029 
2987 3389 2992 3031 3390 3386 2995 2990 2996 
3035 3433 3394 2999 3000 3039 3003 3002 3008 
3445 3006 3007 3012 3051 3409 3053 3016 3414 
3055 3453 3017 3020 3417 3024 3418 3023 3421 
3063 3028 3027 3429 3426 3030 3032 3067 3034 
3430 3036 3075 3001 3041 3004 3040 3079 3045 
3043 3042 3048 3485 3050 3449 3047 3052 3446 
3489 3054 3056 3454 3091 3493 3095 3060 3059 
3064 3458 3461 3457 3068 3105 3465 3103 3505 
3107 3069 3469 3072 3070 3074 3071 3470 3076 
3115 3077 3078 3044 3080 3081 3119 3085 3083 
3088 3525 3482 3086 3087 3092 3131 3486 3093 
3096 3490 3135 3494 3097 3137 3099 3100 3497 
3104 3501 3502 3108 3143 3545 3147 3110 3111 
3112 3549 3151 3506 3153 3113 3114 3116 3513 
3121 3118 3084 3120 3159 3518 3123 3125 3122 
3128 3522 3124 3127 3132 3167 3529 3526 3173 
3136 3134 3534 3139 3140 3144 3179 3581 3541 
3538 3141 3142 3542 3148 3183 3187 3546 3152 
3550 3589 3150 3155 3156 3191 3593 3553 3158 
3521 3160 3557 3163 3561 3162 3168 3164 3166 
3172 3171 3570 3573 3176 3175 3574 3213 3221 
3177 3180 3184 3578 3577 3182 3185 2823 3585 
3582 3188 2827 3586 3192 3590 3195 3194 3196 
3233 2837 3199 2839 3200 3208 3204 3605 3209 
3206 3212 3610 3211 3247 3207 3606 3216 3613 
3614 3220 3617 3224 3618 3621 3225 3223 3622 
3228 3665 3625 3267 3232 3231 3626 3669 3236 
3630 3238 3240 3279 3239 3243 3242 3248 3246 
3252 3287 3251 3256 3255 3295 3654 3657 3261 
3260 3259 3264 3658 3299 3661 3263 3662 3268 
3701 3269 3271 3272 3670 3311 3666 3273 3275 
3276 3277 3278 3241 3244 3280 3281 3319 3641 
3285 3283 3282 3288 3321 3325 3323 3291 3289 
3292 3327 3290 3293 3693 3296 3694 3297 3298 
3697 3300 3304 3303 3308 3702 3745 3306 3307 
3312 3349 3313 3314 3315 3310 3316 3355 3317 
3357 3284 3320 3359 3718 3365 3328 3363 3329 
3326 3332 3726 3729 3331 3335 3333 3336 3730 
3334 3375 3734 3341 3377 3338 3339 3340 3344 
3379 3381 3343 3345 3342 3348 3385 3346 3347 
3350 3352 3750 3391 3353 3351 3393 3354 3356 
3793 3324 3360 3399 3758 3368 3364 3403 3765 
3762 3369 3367 3366 3372 3770 3371 3376 3773 
3374 3411 3380 3378 3778 3419 3382 3383 3384 
3388 3387 3392 3431 3395 3790 3396 3435 3794 
3401 3398 3400 3797 3798 3805 3402 3408 3443 
3441 3410 3407 3406 3412 3849 3809 3806 3416 
3451 3415 3814 3420 3424 3857 3821 3425 3422 
3423 3428 3861 3463 3825 3865 3427 3432 3826 
3434 3471 3436 3873 3833 3834 3438 3437 3404 
3439 3440 3479 3837 3481 3442 3448 3444 3842 
3447 3452 3850 3450 3456 3491 3455 3893 3459 
3460 3464 3858 3462 3862 3468 3466 3869 3467 
3866 3509 3472 3511 3473 3474 3475 3476 3477 
3478 3480 3517 3878 3881 3483 3488 3885 3487 
3492 3886 3889 3533 3496 3495 3894 3531 3535 
3498 3897 3500 3499 3537 3503 3504 3902 3508 
3905 3510 3507 3547 3512 3551 3906 3910 3514 
3515 3516 3555 3917 3519 3484 3520 3918 3523 
3528 3524 3925 3922 3527 3532 3926 3929 3530 
3933 3536 3934 3930 3540 3539 3544 3543 3583 
3548 3945 3942 3941 3946 3552 3554 3556 3954 
3591 3595 3993 3558 3559 3957 3560 3958 3921 
3565 3201 3562 3203 3563 3568 3564 3567 3569 
3566 3572 3215 3571 3576 3575 3579 3580 3219 
3978 3584 3981 3588 3985 3982 3227 3587 3592 
3986 3989 3629 3633 3235 3594 3596 3237 3598 
3599 3597 3637 3600 3997 3602 3608 3603 3643 
3604 6 3609 3649 3612 3607 9 3616 3651 
3655 53 3611 3620 18 3619 22 3624 3623 
3628 30 3632 3671 3667 3631 3634 3673 34 
3636 3635 3638 38 3640 3679 3601 45 42 
85 3685 3645 3642 3648 3683 49 46 3689 
3647 3646 3652 3650 93 3653 3656 54 3695 
3691 57 3659 3660 3699 61 62 101 65 
3663 3664 3668 105 3709 69 66 3672 3711 
3713 3674 73 3675 3676 3677 3678 77 3644 
3680 3681 3719 3682 3688 3684 3723 89 3690 
3687 3686 3692 129 90 94 3696 3735 3698 
3741 3700 3739 137 3705 3703 141 3704 3708 
106 3706 3707 3747 3710 3749 3712 3751 3753 
3714 3715 3716 3717 118 3720 3721 125 122 
3725 3722 3728 3724 165 3763 3727 3732 130 
3733 133 3731 3736 3775 138 3777 3781 3738 
3737 177 3740 3744 3779 3742 3743 142 3785 
3748 3783 3746 3789 3752 3754 3755 3756 3795 
3761 3757 158 3759 3760 3768 3803 3769 3766 
169 3767 166 3772 3807 3813 3771 3776 3774 
3811 3780 181 3819 3782 3784 3788 221 186 
190 3786 3787 189 3792 3831 194 193 3791 
3796 233 198 3799 3764 3800 3801 205 202 
3802 3808 3845 3812 3810 3815 3853 3816 214 
3855 3817 3818 3820 3824 3859 225 3822 3823 
3828 226 3830 3829 3827 3832 3871 230 234 
3835 3836 3875 238 3804 3838 3839 3840 285 
3843 3848 3841 3844 289 3846 3847 3852 253 
250 3851 3856 3854 254 3895 3901 3860 3864 
3899 265 262 3863 3868 266 309 3867 270 
3872 3909 3907 273 3870 3874 3876 3877 3879 
3880 282 281 325 3882 3883 3888 3884 3887 
3892 3931 3890 3891 3896 3935 333 3937 297 
3900 3898 298 3904 302 341 3903 305 3908 
306 3911 310 3912 3947 313 3913 3915 3914 
3916 3955 3951 353 317 3919 318 3920 3959 
322 3923 3928 3927 3969 3932 3967 3971 3936 
3975 3939 3940 338 3938 3944 3977 3979 342 
3943 3983 3948 385 349 389 3949 346 3952 
350 393 3950 3953 3956 3991 3995 358 3924 
3960 365 361 362 3965 3962 3963 3961 3968 
3964 369 3970 3966 3972 3973 3976 3974 3615 
377 3980 378 382 3984 3988 390 3627 3987 
386 29 3992 394 33 3990 3994 3996 398 
3998 3639 3999 4000 
type 1 4000 int
1 1 1 1 1 1 1 1 1 
1 1 1 1 1 1 1 1 1 
1 1 1 1 1 1 1 1 1 
1 1 1 1 1 1 1 1 1 
1 1 1 1 1 1 1 1 1 
1 1 1 1 1 1 1 1 1 
1 1 1 1 1 1 1 1 1 
1 1 1 1 1 1 1 1 1 
1 1 1 1 1 1 1 1 1 
1 1 1 1 1 1 1 1 1 
1 1 1 1 1 1 1 1 1 
1 1 1 1 1 1 1 1 1 
1 1 1 1 1 1 1 1 1 
1 1 1 1 1 1 1 1 1 
1 1 1 1 1 1 1 1 1 
1 1 1 1 1 1 1 1 1 
1 1 1 1 1 1 1 1 1 
1 1 1 1 1 1 1 1 1 
1 1 1 1 1 1 1 1 1 
1 1 1 1 1 1 1 1 1 
1 1 1 1 1 1 1 1 1 
1 1 1 1 1 1 1 1 1 
1 1 1 1 1 1 1 1 1 
1 1 1 1 1 1 1 1 1 
1 1 1 1 1 1 1 1 1 
1 1 1 1 1 1 1 1 1 
1 1 1 1 1 1 1 1 1 
1 1 1 1 1 1 1 1 1 
1 1 1 1 1 1 1 1 1 
1 1 1 1 1 1 1 1 1 
1 1 1 1 1 1 1 1 1 