# vtk DataFile Version 4.0
Generated by LAMMPS
ASCII
DATASET POLYDATA
POINTS 4000 float
4.37274 -0.528265 3.66506 6.38188 -0.67887 1.65116 4.09692 -2.70488 1.61555 
6.70079 1.15067 -0.397582 4.56982 -0.569265 -0.488906 8.6374 1.28577 1.64888 
10.3629 -1.26497 1.54001 10.6811 0.639997 41.2841 8.34663 -1.01878 -0.480664 
12.856 0.544192 1.66963 14.4226 -1.83694 1.62635 12.494 -1.60443 3.61079 
14.6815 0.310188 -0.543082 16.4306 -0.113111 1.67139 18.5261 -2.26875 1.6555 
18.625 -0.431111 3.62493 20.2523 -2.72727 -0.36807 16.3996 -2.14846 -0.596402 
20.8001 -0.456934 1.53557 24.4355 -1.21781 1.67663 22.2098 43.2812 1.64098 
22.5977 1.34415 1.66617 21.1174 1.49392 -0.62159 28.2913 -1.84146 1.20588 
26.7042 0.457587 1.76398 28.6938 0.176519 3.61632 26.602 -1.53562 3.62079 
26.2346 -1.4428 -0.652345 28.615 0.181195 41.0441 30.6511 -0.139031 1.37808 
32.5782 -2.51228 1.4616 32.4622 -0.421411 3.71229 30.3486 -2.08089 3.50291 
37.4392 -0.157296 1.54526 34.9249 -1.27697 1.09597 34.1857 -2.80315 3.92929 
4.69489 1.5349 1.65522 2.85812 3.85852 1.56189 4.81294 3.45533 -0.364231 
6.94997 3.48492 1.63886 7.42484 5.23268 -0.447155 4.87215 3.68377 3.49217 
7.35912 5.33309 3.61048 9.35969 5.06459 1.54928 11.1074 2.73695 1.3307 
11.2959 4.76746 3.63668 9.13335 3.10528 3.49424 9.01152 3.02378 -0.36039 
14.9921 2.1827 1.59215 13.0714 4.61395 1.61049 12.922 2.49956 3.5276 
15.2603 4.22035 3.48868 13.0712 2.56225 -0.46998 18.888 1.54911 1.38987 
17.3384 3.91013 1.78582 17.1153 1.82391 3.69021 16.9327 2.06615 41.3013 
19.2696 3.76334 -0.47656 21.0442 3.46547 1.59766 23.3854 5.29897 1.67972 
21.4339 5.52757 -0.470134 23.2823 3.22418 -0.578068 24.899 2.83556 1.67649 
25.2611 4.76011 3.66684 27.1395 4.69703 1.68137 26.9644 2.41274 3.65731 
25.459 5.05151 41.2145 33.1665 0.910852 1.32661 30.8398 1.7955 3.66224 
28.8912 2.25236 1.50277 29.1669 4.17065 3.63859 31.2305 3.80677 1.32429 
2.37181 1.72786 3.51253 35.7219 2.30948 1.47298 33.925 4.60145 1.50812 
37.623 1.74091 -0.611348 35.9168 4.04835 -0.693531 5.08131 5.60677 1.43675 
3.02799 5.97326 -0.353627 3.18879 7.79018 1.55145 5.59297 9.74977 1.57793 
5.62718 7.79109 3.59015 7.48253 7.38006 1.59874 11.4064 6.91869 1.41593 
9.77598 9.3151 1.59512 7.73093 9.45772 -0.500367 9.62358 6.93973 3.63918 
7.91907 9.46173 3.74651 15.6505 6.34648 1.48011 13.7719 8.64019 1.67084 
13.5114 6.68199 -0.662211 19.3882 5.80433 1.43515 17.5886 8.22485 1.48689 
20.0115 9.82924 1.40412 21.6862 7.50348 1.63039 23.9104 9.21342 1.39492 
23.6506 7.2512 3.72857 21.8723 9.50152 3.6534 21.9587 9.55167 41.099 
25.5992 7.06743 1.62239 27.6225 6.55234 3.76211 27.713 8.4478 1.32897 
25.924 8.93689 3.60836 32.0392 6.59416 1.4111 29.5054 6.05643 1.1432 
30.6073 8.99197 1.26295 32.6159 8.52923 41.3465 36.1589 6.06635 1.62109 
36.5724 8.04664 -0.716406 34.8695 8.56802 1.43637 34.2448 6.27064 -0.436672 
3.92378 12.0368 1.58777 6.1024 13.7111 1.62843 4.24697 13.9215 -0.532153 
3.78743 9.95983 3.42921 4.31007 13.9908 3.72642 6.049 11.681 3.71376 
10.0309 11.154 -0.406839 7.92635 11.488 1.51417 10.0563 13.2168 1.5884 
10.2147 11.1351 3.78192 8.2043 13.5506 3.70495 15.6843 10.4601 1.68476 
14.0423 10.5507 -0.621981 11.8406 10.9741 1.71077 14.1511 12.8223 1.49202 
13.8517 10.6921 3.74636 18.1496 12.2954 1.37663 20.1397 11.958 3.7158 
18.5492 14.1848 3.70044 20.3447 13.9486 1.28714 22.2276 11.7651 1.44 
24.0554 11.2391 3.55697 24.2724 13.3004 0.990768 22.1936 13.6204 3.53575 
26.28 10.8025 1.25017 29.0241 11.2528 1.40082 26.8936 13.6728 1.70424 
28.8477 13.217 -0.420089 29.0029 13.4328 3.50172 32.8138 10.9051 1.6014 
30.8495 10.9217 -0.590697 30.9604 13.1207 1.45474 32.965 12.8459 -0.474891 
36.7031 10.4363 1.31884 34.9754 12.6654 1.52538 37.0218 12.3327 -0.597299 
4.49488 16.0081 1.5645 6.46589 15.8298 -0.658998 6.70137 17.7644 1.40692 
4.65103 18.1283 -0.63966 8.31413 15.5657 1.35127 10.6457 17.1629 1.30834 
10.2804 15.256 3.60328 8.7346 17.5704 3.53738 12.4698 14.9855 1.52595 
14.417 16.997 1.30495 14.2315 14.8931 3.64946 12.4511 17.0309 3.74484 
16.262 14.6724 1.48111 18.5122 16.171 1.49129 16.5515 18.6248 1.58881 
18.575 18.4016 3.42305 22.4525 15.3718 1.41585 20.4404 16.1242 3.8461 
20.6341 17.8079 1.39074 23.4144 18.2644 1.69169 27.1483 15.5342 -0.342221 
25.1846 16.0774 1.72691 27.4583 17.6784 1.56824 25.3979 17.9092 -0.34154 
29.1015 15.5041 1.61624 31.0656 15.0911 -0.506629 33.1931 14.8517 1.39521 
31.3567 17.0003 1.46365 29.3338 17.3545 -0.511277 29.5344 17.5366 3.35817 
37.3892 14.2802 1.55169 35.2141 14.4503 -0.595162 33.4989 16.8782 -0.484473 
35.5083 16.6227 1.55496 37.5605 16.2251 3.58365 6.61577 19.9632 -0.782996 
4.98907 20.014 1.54523 6.97472 21.8555 1.63151 3.23729 22.3763 1.49883 
2.87257 20.2721 -0.612962 6.87436 20.0367 3.74668 8.64091 19.6433 1.5766 
10.8907 21.5096 1.55272 10.7303 19.2238 3.51537 9.07624 21.5167 3.5116 
12.7152 19.0932 1.55955 14.7225 21.0128 1.72266 14.8626 18.6143 3.71727 
12.9071 21.1446 3.58943 14.6044 19.0029 41.0357 19.0283 20.1314 1.16934 
16.9407 20.6496 3.58631 21.6031 18.8266 3.61865 23.5959 20.0447 -0.429594 
21.7339 20.7313 1.73705 24.1104 22.377 1.35909 23.898 20.4082 3.57589 
25.8185 20.2134 1.57934 27.5625 19.6357 -0.546035 27.9816 21.7826 1.56425 
25.8586 22.0487 -0.6883 29.6842 19.5408 1.41407 31.6169 19.1225 -0.435337 
32.1217 21.2183 1.23248 29.9482 21.2203 -0.697343 37.6482 18.311 1.40675 
33.69 18.9174 1.48599 35.7982 18.5568 -0.496709 36.1013 20.5569 1.46357 
34.0633 20.8553 -0.473096 35.7365 18.665 3.60396 5.3262 24.1712 1.58095 
3.22087 24.4685 -0.350839 3.5201 26.4163 1.63059 5.49618 26.1484 3.71456 
9.286 23.7206 1.7011 11.598 25.4992 1.74933 7.39494 25.9346 1.61071 
7.2963 23.901 3.73179 11.0879 23.323 3.72045 9.49948 25.7904 3.72575 
13.1103 23.3494 1.61718 15.4916 24.4725 1.2483 15.1655 22.9674 3.46362 
13.529 25.2097 3.5916 17.2406 22.2615 1.12111 18.1633 25.0383 1.67589 
20.0468 22.9491 1.60889 20.017 24.711 -0.360776 22.2946 24.5216 1.23711 
24.311 24.4037 -0.551812 21.9413 22.5589 -0.520944 22.3777 26.584 -0.548621 
26.1726 24.0732 1.54325 28.3831 23.8537 41.2592 24.4064 26.343 1.43718 
28.5464 25.772 1.56355 26.648 26.095 -0.531085 30.3166 23.4451 1.54761 
32.2615 23.3163 -0.411097 32.206 25.2755 1.70804 30.636 25.4327 -0.558762 
34.1845 23.0489 1.52218 36.2592 22.733 -0.341036 34.336 25.1372 -0.480387 
36.4661 24.9804 1.7676 36.2906 26.8842 41.1993 5.65504 28.3151 1.63446 
3.88298 30.6198 1.72288 4.00079 28.6118 3.77786 6.27761 30.271 3.70525 
9.86736 27.6795 1.64834 7.79965 29.9353 1.61047 9.73964 29.6286 3.78959 
7.69045 27.8981 3.74795 13.9737 26.7877 1.18954 11.9952 29.1558 1.17256 
14.7957 29.9192 1.69638 11.6929 27.6229 3.61201 16.7305 27.5557 1.72519 
16.7894 29.4619 -0.331483 18.8763 29.3043 1.71432 18.2809 27.1504 41.1859 
20.5727 26.8239 1.46466 22.8191 28.6168 1.44788 20.601 28.813 -0.51954 
22.8248 30.6545 -0.617442 24.6173 28.3563 -0.729631 26.5897 27.9558 1.52141 
28.7266 27.8921 -0.408415 24.9502 30.4396 1.46803 26.9412 30.1359 -0.616791 
30.693 27.714 1.60824 32.3975 27.4091 -0.5114 28.8393 30.0613 1.67006 
32.8672 29.3389 1.75655 30.6398 29.6895 41.2552 34.3528 26.8877 1.67213 
36.7104 28.8163 1.69963 36.8152 26.8884 3.78782 6.13849 32.2429 1.46629 
6.601 34.2318 3.46989 4.27397 34.6481 1.33582 4.22675 32.4571 3.6918 
10.0716 31.4555 1.22313 8.56497 33.9356 1.19017 8.31323 32.1936 3.57187 
11.2948 34.3454 1.732 11.1579 32.2627 3.43429 12.9395 32.0996 1.41552 
15.039 31.6849 -0.343444 15.1883 33.9347 1.70602 13.2248 34.3892 -0.277064 
13.3099 34.007 3.47958 17.0235 31.6892 1.58188 19.2915 33.5206 1.49156 
18.7745 31.2695 -0.415633 17.2996 33.6926 3.51439 17.1252 33.6854 -0.377773 
20.9859 30.8438 1.3071 22.9652 32.589 1.46556 21.1356 32.9632 -0.534666 
21.1406 33.1624 3.62422 23.3203 34.7427 -0.535959 27.135 32.2632 1.53864 
24.9592 32.4407 -0.51059 25.1783 34.4731 1.49932 27.0598 34.2658 -0.451652 
28.8813 32.0183 -0.502658 29.2291 33.9746 1.81024 31.0529 31.7117 1.62141 
33.327 33.4245 1.51423 31.0438 33.6697 -0.422284 32.8342 31.3109 -0.597405 
35.0606 31.1718 1.64296 37.0397 32.9696 1.67214 6.68802 36.1855 1.1679 
4.79462 38.6193 1.19666 4.74896 36.5631 3.51042 2.88005 38.8694 3.71241 
9.6139 36.8287 1.51047 7.79206 38.9194 1.6434 9.92347 38.7378 3.57466 
9.73707 38.8873 -0.431739 11.7085 38.6626 1.6767 11.4841 36.7143 -0.539889 
13.3847 36.3723 1.532 15.8194 38.0623 1.67231 15.3989 36.0893 -0.375127 
13.8021 38.3915 -0.379445 17.4304 35.6449 1.68966 19.5513 37.4715 1.6229 
17.7492 37.6266 3.80039 19.3519 35.4514 3.69997 17.5602 37.7305 -0.278869 
19.4118 35.5289 -0.560885 21.4007 35.1356 1.52379 23.541 36.8667 1.75573 
21.8446 39.2531 1.84755 21.6698 36.9917 -0.454487 23.7922 38.7281 -0.256231 
27.4387 36.4753 1.65739 27.5877 38.4012 -0.567807 25.7216 38.6791 1.49543 
25.6207 36.6229 -0.418387 31.3077 35.6858 1.68712 29.7188 38.0863 1.68637 
29.3769 36.1492 41.2758 31.491 37.7423 41.2365 37.6422 37.0009 1.44832 
33.1561 35.5151 -0.610111 33.493 37.6295 1.52672 35.2407 35.4324 1.55125 
35.6201 38.9655 1.70349 5.89944 41.1223 1.63791 2.78745 40.4177 1.16234 
5.93505 43.2438 3.61175 6.07409 43.3622 -0.294691 10.0935 41.0867 1.42705 
8.14369 43.1334 1.71413 8.00394 41.0506 3.484 7.9119 41.2993 -0.367219 
10.4512 42.9816 -0.63857 14.0509 40.2444 1.57883 12.04 40.4502 3.56281 
12.2145 42.6835 1.56198 14.2164 42.1303 3.54094 14.2372 42.3146 -0.594126 
12.0138 40.671 -0.624593 17.9606 39.873 1.55469 16.2624 42.0765 1.62714 
19.8463 41.6308 1.91015 18.0405 41.6485 3.72691 15.9747 39.9835 -0.542523 
18.1627 41.7691 -0.37351 19.8385 39.2915 -0.321765 23.9654 40.9995 1.54665 
24.0801 42.9861 -0.502685 21.8769 41.1891 -0.309658 26.2736 42.7881 1.54845 
27.9242 40.5681 1.62089 25.7464 40.6336 -0.667916 28.0531 42.3451 -0.553101 
30.1075 42.0751 1.41393 31.7795 39.9403 1.77144 29.7357 40.1791 41.262 
33.8839 39.6202 3.74008 36.5179 42.8236 0.846459 34.1283 41.3825 1.48526 
36.1866 41.1967 3.394 6.78439 1.37027 3.63101 6.66996 1.22024 7.55585 
6.38853 -0.685672 5.64722 4.01424 -2.54471 5.39295 37.03 -0.345529 5.53305 
[...]
POINT_DATA 4000
FIELD FieldData 6
id 1 4000 int
405 7 3 6 2 12 11 10 9 
16 15 413 14 20 19 418 21 17 
24 28 23 63 61 32 67 469 426 
26 30 36 35 434 430 4 40 437 
8 43 45 47 46 445 446 52 51 
450 449 49 55 56 453 454 53 59 
60 457 57 58 64 103 101 62 68 
505 72 466 66 75 473 71 470 76 
402 79 80 41 78 48 42 83 88 
485 87 91 92 86 489 486 95 96 
93 99 100 139 104 108 502 541 102 
107 509 112 506 115 111 116 114 44 
81 119 117 123 128 122 482 522 525 
129 127 132 529 526 135 133 131 136 
533 140 538 577 144 143 545 148 542 
147 151 152 150 553 120 153 155 157 
84 159 121 163 165 168 162 167 172 
569 566 171 176 573 570 175 179 180 
578 183 581 184 188 189 187 191 186 
156 154 160 195 193 593 124 158 197 
199 561 205 203 208 204 201 605 207 
212 609 606 211 215 613 610 174 219 
617 582 225 223 227 586 192 190 231 
229 196 194 235 233 164 200 198 239 
237 598 243 241 244 642 247 251 248 
645 649 646 216 255 614 653 220 259 
224 261 228 226 222 265 232 230 267 
271 269 236 234 275 273 240 238 277 
279 278 283 284 681 682 252 287 689 
685 256 291 295 650 260 297 264 258 
263 268 262 305 266 272 270 307 309 
276 274 311 315 313 280 319 678 288 
725 323 721 292 327 686 331 690 296 
294 300 333 694 299 304 301 698 298 
303 308 302 702 345 312 306 347 349 
310 351 316 355 353 314 320 359 328 
363 722 761 332 367 730 369 336 330 
335 340 337 334 339 344 738 741 338 
341 343 348 383 342 385 352 389 387 
346 356 391 350 393 324 354 395 360 
399 368 364 766 5 371 372 769 366 
370 375 773 376 774 374 373 379 380 
384 778 377 378 381 388 25 382 27 
392 386 29 31 396 390 794 39 400 
798 406 806 407 768 403 409 410 412 
411 810 414 416 415 814 813 417 420 
419 817 818 421 461 422 424 463 822 
465 428 432 467 869 471 436 401 440 
438 439 408 443 448 447 845 846 451 
849 452 455 456 853 458 459 460 499 
462 501 901 464 503 862 468 507 474 
472 475 476 477 441 404 479 841 442 
483 488 885 487 889 492 886 491 493 
495 490 890 494 496 893 497 498 897 
500 898 539 941 504 902 543 510 508 
511 512 513 480 515 517 917 478 481 
444 519 882 523 925 528 922 527 532 
926 535 530 531 536 537 937 534 540 
579 544 548 549 516 546 547 551 953 
514 520 557 555 484 518 918 521 559 
921 562 563 965 565 568 962 567 572 
571 576 575 574 580 974 585 583 552 
550 589 591 950 989 554 556 560 595 
954 993 558 524 597 599 958 564 602 
603 604 601 1005 1002 1001 607 608 612 
1006 611 1010 616 615 584 621 619 588 
587 627 986 592 590 629 631 990 1029 
594 596 633 635 994 1033 600 637 639 
998 1037 641 643 644 1041 647 648 652 
1045 1049 1046 651 655 618 620 623 657 
624 1022 622 625 628 626 1025 665 667 
1065 630 632 1030 669 671 1069 634 636 
675 673 1034 1073 638 640 677 679 1038 
1077 683 684 687 691 688 1089 1085 654 
693 656 660 661 659 664 1061 658 1058 
705 662 663 668 1062 666 1066 670 672 
707 1109 709 1070 674 676 715 711 713 
1113 1074 680 717 719 1078 723 759 724 
729 692 727 696 697 695 700 1097 1094 
699 701 704 1098 745 703 708 1102 1145 
706 712 1106 749 747 710 1110 716 753 
751 714 755 757 718 720 758 1157 728 
799 726 733 731 732 1130 734 737 1133 
735 736 1137 740 1134 739 744 1141 1138 
742 785 743 748 1142 783 746 752 789 
1146 787 750 793 756 791 754 795 797 
760 800 765 762 763 767 770 772 1170 
1169 771 775 776 1174 1173 777 781 1177 
779 780 1178 782 425 423 784 788 429 
786 427 792 829 790 433 431 796 764 
435 805 803 807 1206 809 812 811 1210 
1209 816 815 1213 1214 820 819 1218 1217 
821 861 824 828 863 865 826 832 867 
830 871 836 873 801 834 804 840 838 
808 843 848 847 850 1246 851 852 1249 
1250 854 1253 855 856 1254 857 858 859 
860 1258 1257 864 903 905 866 909 868 
872 907 877 875 870 876 802 879 842 
1242 883 888 1285 887 891 892 1289 1286 
894 1290 1293 895 896 899 1297 900 939 
1298 904 943 906 945 908 912 880 913 
911 874 915 881 878 844 919 1281 923 
928 1325 1322 1282 929 927 932 1326 1329 
933 935 931 930 1330 936 934 977 938 
940 979 942 944 948 947 910 949 951 
914 916 920 957 955 1357 884 1318 959 
1321 963 1365 968 1362 969 1369 966 967 
972 1366 971 973 970 976 1370 978 975 
980 981 946 983 985 987 984 952 991 
956 960 1354 995 1393 924 997 961 1361 
999 1358 1397 964 1003 1004 1401 1405 1402 
1009 1007 1008 1012 1406 1013 1011 1016 1017 
1015 1019 1014 1021 982 988 1023 1027 992 
1390 1429 1031 996 1035 1394 1433 1000 1039 
1398 1437 1043 1042 1047 1048 1052 1445 1053 
1055 1051 1050 1018 1020 1024 1059 1026 1028 
1426 1067 1465 1032 1071 1430 1469 1036 1075 
1473 1434 1040 1079 1438 1477 1044 1081 1083 
1082 1084 1086 1087 1088 1054 1057 1056 1091 
1060 1064 1063 1068 1462 1466 1072 1470 1107 
1509 1076 1111 1115 1513 1474 1080 1117 1119 
1517 1121 1122 1123 1124 1125 1092 1127 1090 
1093 1095 1096 1100 1101 1099 1498 1501 1104 
1105 1103 1108 1505 1502 1545 1149 1506 1112 
1147 1549 1510 1151 1153 1116 1553 1114 1155 
1118 1120 1159 1161 1158 1128 1163 1126 1129 
1131 1132 1136 1135 1534 1140 1537 1139 1144 
1538 1541 1185 1143 1148 1542 1183 1585 1189 
1152 1589 1187 1546 1550 1150 1156 1191 1193 
1197 1154 1195 1160 1199 1166 1162 1165 1168 
1164 1167 1171 1172 1570 1573 1175 1176 1574 
1181 1577 1180 1179 1184 1581 1578 1182 825 
823 1188 1186 827 1192 1586 1190 833 831 
1196 839 835 1194 1198 837 1200 1202 1205 
1208 1204 1212 1610 1207 1211 1216 1215 1614 
1613 1220 1219 1221 1265 1222 1261 1224 1228 
1263 1269 1226 1267 1232 1626 1230 1234 1236 
1235 1238 1240 1279 1239 1245 1247 1243 1646 
1649 1251 1252 1650 1653 1255 1256 1259 1260 
1658 1299 1301 1262 1264 1303 1701 1305 1266 
1271 1268 1272 1666 1270 1274 1273 1275 1276 
1277 1241 1244 1280 1248 1283 1288 1685 1291 
1287 1689 1292 1686 1294 1295 1296 1694 1697 
1300 1339 1302 1341 1705 1304 1308 1702 1309 
1307 1306 1312 1311 1313 1315 1310 1317 1316 
1278 1319 1682 1323 1328 1725 1729 1327 1332 
1726 1333 1335 1331 1730 1336 1337 1334 1338 
1377 1340 1344 1345 1343 1342 1348 1745 1347 
1349 1346 1352 1314 1351 1355 1353 1320 1284 
1721 1359 1363 1368 1762 1722 1765 1367 1769 
1372 1766 1373 1371 1376 1374 1375 1379 1381 
1384 1383 1385 1382 1388 1350 1387 1391 1389 
1356 1360 1395 1324 1758 1797 1399 1761 1403 
1805 1364 1404 1802 1801 1409 1407 1408 1412 
1806 1413 1410 1411 1415 1378 1417 1380 1419 
1418 1421 1423 1425 1424 1386 1392 1427 1431 
1396 1794 1435 1833 1400 1798 1439 1837 1441 
1443 1442 1444 1449 1451 1447 1448 1446 1414 
1453 1416 1455 1457 1420 1459 1461 1422 1428 
1463 1467 1432 1830 1471 1869 1436 1475 1873 
1834 1440 1479 1838 1877 1482 1481 1483 1484 
1485 1489 1452 1487 1493 1450 1454 1491 1456 
1495 1458 1460 1464 1499 1468 1503 1905 1866 
1472 1870 1507 1511 1909 1476 1874 1913 1515 
1478 1480 1519 1917 1878 1521 1488 1525 1523 
1486 1492 1529 1527 1494 1490 1496 1531 1497 
1500 1504 1508 1902 1945 1906 1512 1910 1547 
1949 1514 1516 1555 1914 1551 1518 1557 1520 
1559 1565 1522 1528 1561 1563 1530 1526 1532 
1567 1533 1535 1536 1540 1539 1941 1544 1938 
1543 1548 1942 1985 1946 1552 1587 1989 1950 
1593 1556 1591 1554 1558 1597 1524 1595 1560 
1201 1203 1562 1568 1564 1566 1569 1571 1572 
1575 1576 1974 1977 1580 1579 1978 1584 1981 
1225 1582 1583 1223 1588 1229 1227 1986 1592 
1629 1233 1590 1231 1596 1594 1599 1237 1598 
1600 1641 1602 1604 1643 1606 1609 1608 1612 
1611 1616 2014 1615 2017 1618 1617 1620 1619 
2018 1665 1661 1622 1624 1628 1663 1630 1632 
1631 1634 1636 1633 1635 2033 1677 1638 1640 
1679 1637 1642 1645 1648 1644 1647 1651 1652 
2050 1654 1655 1656 2053 1657 1659 2057 1660 
1699 1662 1664 1668 2065 2062 1669 1671 1667 
1672 1670 2070 1673 1675 1674 1676 1717 1678 
1680 1719 1683 1688 1687 1690 2089 1692 2086 
1691 2090 1693 1695 1696 1698 1700 1704 2101 
1703 1708 2105 2102 1709 1707 1706 1712 2106 
1713 1711 1715 1710 1714 1716 2114 1681 1684 
1720 1723 2125 1728 2122 2129 1727 1732 2126 
1733 1734 1735 1731 2133 1736 2130 1737 1741 
2098 1739 1744 2141 1743 1742 1748 2145 2142 
1749 1747 1746 1752 2149 2146 1753 1751 1750 
1756 1755 1718 1759 1757 1760 2158 2165 1763 
1768 2162 1767 2169 1772 2166 1773 1770 1771 
1775 2134 1738 1740 1779 1777 1781 1778 2138 
1783 1785 1782 1784 1788 1789 1787 1786 1792 
2189 1754 1791 1793 1795 1724 1764 1799 2161 
2205 1803 1808 1804 2202 2201 1809 1807 1811 
1813 1776 1774 1815 1817 1780 1819 1818 1820 
1821 1823 2221 1822 1824 1825 1790 1827 1831 
1828 1829 1796 1835 1800 2198 2237 1839 1841 
1842 1843 1844 2241 1845 1810 1849 1812 1847 
1851 1814 1816 1855 1853 1858 1857 1859 1860 
2257 2258 1861 1863 1865 1864 2261 1826 1832 
1871 1867 1836 2234 1875 2273 1840 2238 2277 
1879 1881 1885 1848 1883 1846 1852 1889 1887 
1850 2289 1854 1856 1893 1891 2293 2254 1897 
1895 1899 1900 2294 1862 1868 1901 1903 1872 
2270 1907 2309 1911 1876 2274 1915 2313 1880 
1919 2317 1882 1888 1923 1925 1929 1886 1892 
1927 2329 2286 1890 1931 1896 1933 2290 2333 
1894 1898 1935 1937 1939 1904 1908 1943 2345 
1912 2306 1947 2349 1953 2310 1916 1955 1951 
1957 1918 1884 1920 1922 1961 1928 1963 1965 
1926 1932 1969 1967 1934 1930 1936 1971 1940 
1944 2381 1948 2342 1983 2385 1952 2346 1987 
2389 1993 1954 1956 1991 2354 1921 1924 1959 
1958 1960 1999 1962 1605 1603 1968 1964 1601 
1966 1970 1607 1972 1973 1975 1976 1980 1979 
1984 2378 1621 1625 1982 1623 1988 2382 1627 
1992 2386 2390 1990 1994 1995 1996 2393 1639 
1997 1998 2000 2398 2041 2002 2043 2004 2008 
2045 2006 2012 2047 2010 2016 2013 2020 2059 
2019 2061 2022 2024 2028 2425 2027 2422 2026 
2426 2030 2029 2032 2031 2429 2034 2036 2434 
2035 2038 2077 2040 2079 2037 2042 2044 2083 
2081 2049 2046 2048 2052 2051 2054 2055 2056 
2058 2060 2064 2461 2465 2063 2068 2462 2066 
2069 2469 2071 2067 2072 2470 2466 2073 2075 
2473 2074 2076 2474 2078 2117 2080 2119 2477 
2517 2082 2085 2088 2521 2084 2091 2087 2092 
2490 2093 2094 2095 2493 2096 2497 2097 2458 
2099 2104 2501 2103 2108 2502 2109 2107 2111 
2112 2510 2115 2113 2513 2110 2116 2514 2155 
2118 2120 2157 2159 2123 2128 2124 2127 2131 
2529 2132 2526 2533 2137 2494 2100 2135 2537 
2139 2144 2498 2538 2541 2143 2148 2545 2542 
2147 2152 2546 2150 2151 2153 2156 2121 2154 
2160 2554 2597 2163 2168 2565 2562 2167 2530 
2171 2569 2136 2140 2173 2175 2534 2573 2179 
2181 2177 2178 2184 2581 2577 2578 2185 2183 
2585 2182 2582 2188 2187 2186 2192 2193 2191 
2190 2196 2593 2590 2195 2199 2197 2200 2207 
2203 2204 2170 2172 2209 2211 2570 2213 2174 
2176 2215 2574 2218 2180 2217 2219 2617 2618 
2222 2223 2225 2625 2224 2228 2621 2629 2227 
2229 2226 2232 2626 2231 2194 2233 2235 2164 
2601 2239 2208 2206 2245 2243 2602 2606 2645 
2212 2210 2610 2251 2247 2249 2649 2214 2216 
2255 2253 2614 2653 2220 2259 2260 2658 2263 
2264 2262 2265 2267 2268 2269 2230 2236 2271 
2275 2673 2240 2279 2641 2242 2248 2283 2285 
2642 2685 2246 2252 2287 2250 2291 2646 2650 
2256 2295 2693 2297 2299 2298 2300 2301 2303 
2305 2304 2266 2272 2311 2307 2276 2713 2315 
2244 2278 2280 2281 2678 2325 2282 2288 2323 
2682 2725 2292 2327 2296 2331 2336 2690 2335 
2337 2339 2334 2340 2734 2302 2308 2341 2343 
2312 2749 2347 2314 2353 2710 2316 2320 2351 
2714 2717 2321 2318 2284 2319 2757 2365 2322 
2328 2363 2326 2332 2369 2367 2373 2330 2371 
2730 2773 2338 2377 2375 2379 2344 2348 2785 
2383 2352 2387 2750 2350 2355 2356 2753 2324 
2361 2359 2358 2357 2360 2399 2001 2362 2003 
2005 2368 2366 2009 2007 2372 2409 2015 2374 
2370 2011 2376 2380 2384 2778 2021 2025 2023 
2388 2782 2786 2392 2391 2790 2394 2395 2396 
2794 2397 2797 2364 2039 2400 2402 2441 2404 
2443 2841 2445 2449 2408 2406 2412 2447 2849 
2414 2410 2451 2810 2418 2457 2420 2424 2821 
2428 2825 2423 2822 2427 2430 2432 2830 2431 
2433 2436 2834 2833 2435 2438 2440 2479 2877 
2838 2837 2481 2442 2444 2881 2842 2483 2485 
2446 2450 2448 2885 2487 2846 2452 2454 2453 
2455 2456 2459 2464 2861 2463 2468 2467 2866 
2862 2471 2472 2869 2870 2475 2873 2476 2874 
2515 2478 2480 2878 2519 2917 2482 2523 2484 
2921 2882 2489 2486 2488 2492 2491 2460 2495 
2897 2499 2504 2858 2901 2505 2503 2905 2902 
2508 2509 2506 2507 2909 2511 2512 2906 2910 
2516 2914 2555 2913 2518 2520 2918 2557 2559 
2957 2525 2522 2528 2524 2496 2527 2531 2933 
2500 2535 2937 2894 2539 2941 2544 2898 2938 
2945 2543 2942 2548 2549 2547 2949 2552 2946 
2553 2550 2551 2953 2556 2950 2558 2599 2595 
2560 2958 2954 2997 2561 2563 2567 2564 2532 
2571 2930 2969 2536 2934 2540 2575 2977 2973 
2579 2981 2580 2978 2584 2583 2985 2588 2982 
2589 2587 2989 2586 2592 2986 2633 2591 2993 
2596 3033 2990 2598 2594 2994 2635 2600 2568 
2566 2605 2603 2607 2966 2962 3005 2572 2611 
2609 2970 3009 2613 2576 2615 2974 3013 2619 
3017 2620 3018 2623 3025 2624 2622 2628 3021 
3022 2627 3029 2632 3026 2630 2631 2634 2636 
2637 2639 2608 2643 3006 3045 2612 2651 2647 
2616 3014 3053 2655 2657 2659 2660 3057 2661 
2663 2664 2662 3062 2669 2667 2665 3069 2668 
2666 3066 3065 2671 2675 2672 2638 2677 2604 
2640 2679 3041 2648 2683 3085 2652 2687 2689 
3089 3046 3050 2654 2656 2691 2695 2694 2697 
2699 2698 2700 2701 2703 2704 2702 3101 3102 
2705 2709 2707 2711 2708 3105 2674 2670 2676 
2680 2644 2681 2719 3078 3081 2688 2723 3125 
3082 2686 2729 2692 2727 3086 2733 2696 2731 
3133 3090 2735 2737 2739 3134 2740 2738 3137 
2741 2743 2744 2745 2706 2712 2747 2715 2716 
2720 3114 3157 2721 2684 2718 2759 3121 3118 
2722 2765 2728 2763 2726 2732 2767 2769 3126 
3169 2736 2771 3173 2776 3130 2775 2777 3177 
2780 2774 3174 2781 2742 2779 2748 2783 2746 
2752 2751 2754 2755 2756 3153 2761 2724 2758 
2760 2799 3197 2762 2401 2403 2764 2405 2768 
2766 2407 2772 3166 2770 2416 2413 2411 3170 
2813 2417 2415 2419 2784 2421 2788 2787 3186 
2789 2792 2791 3189 3190 2793 2795 2796 3194 
3193 2798 2437 2439 2800 3198 2802 2804 2843 
3241 3202 2806 2845 2808 3245 2812 3206 2847 
2853 2851 2816 2814 2820 2824 2826 2828 2823 
3225 2827 3226 2829 2832 3229 2831 3230 2836 
2875 3233 2835 3234 2840 2879 3238 3277 2844 
2883 3242 3281 2848 2852 2887 2893 2850 2857 
2856 2855 3254 2818 2859 3258 2864 3257 2865 
2863 2868 3265 2871 2867 3269 3266 2872 3270 
3273 2876 3274 2880 2919 3278 3317 2884 2923 
2889 2886 2891 2888 2892 3286 2854 2890 2860 
2895 3297 3293 2899 3301 2904 2903 3302 2908 
3305 3309 2907 2912 3306 2915 2911 3313 3310 
2916 3314 2955 2959 2920 3318 3357 2925 2922 
2928 2924 3325 3322 2926 2929 2927 2931 2896 
2900 2935 3337 3333 3298 2939 3338 2944 3345 
2943 2948 3342 2947 3349 2952 3346 3353 2951 
2956 3350 2995 2960 2999 3354 2961 2965 2963 
2967 3362 3365 2932 2971 3330 2936 3334 2975 
3373 2940 2979 3381 2980 3378 3377 2983 3385 
2984 2988 3382 3389 2987 2992 3386 2991 3393 
2996 3390 2964 2998 3037 3000 2968 3003 3007 
3366 3405 2972 3409 3011 3370 2976 3015 3374 
3413 3019 3417 3020 3418 3023 3421 3425 3024 
3027 3429 3028 3426 3032 3030 3031 3035 3036 
3039 3034 3001 3002 3008 3445 3043 3402 3010 
3049 3012 3410 3051 3047 3406 3449 3054 3016 
3414 3055 3453 3454 3059 3457 3058 3060 3458 
3061 3063 3461 3064 3462 3465 3067 3068 3072 
3071 3073 3075 3070 3434 3038 3004 3040 3042 
3048 3442 3083 3485 3052 3087 3446 3489 3094 
3093 3056 3091 3095 3450 3493 3097 3098 3099 
3494 3100 3498 3103 3501 3104 3109 3107 3111 
3108 3106 3074 3076 3077 3080 3079 3044 3119 
3441 3481 3088 3123 3525 3482 3129 3092 3486 
3127 3529 3096 3131 3533 3136 3135 3537 3534 
3140 3139 3141 3143 3142 3138 3144 3110 3112 
3145 3113 3147 3115 3117 3116 3120 3084 3159 
3518 3521 3122 3165 3128 3522 3163 3565 3132 
3167 3569 3526 3530 3573 3171 3176 3175 3179 
3181 3146 3148 3149 3150 3152 3151 3154 3155 
3156 3160 3554 3161 3124 3561 3158 3558 3199 
2801 3162 2803 3168 3562 3164 3201 2805 3205 
2809 2807 3209 3172 3566 2811 2815 3570 2819 
2817 3178 3180 3184 3182 3221 3185 3183 3188 
3187 3192 3191 3590 3195 3196 3594 3593 2839 
3200 3237 3598 3597 3602 3204 3641 3243 3249 
3208 3212 3247 3210 3214 3216 3215 3217 3218 
3220 3219 3222 3224 3228 3227 3232 3231 3630 
3629 3236 3235 3634 3240 3638 3677 3279 3248 
3283 3244 3285 3642 3646 3246 3251 3252 3250 
3255 3253 3256 3654 3261 3259 3260 3264 3658 
3262 3263 3662 3268 3665 3669 3267 3272 3666 
3271 3275 3673 3276 3670 3674 3280 3319 3678 
3717 3282 3321 3288 3284 3287 3682 3289 3292 
3291 3689 3686 3690 3290 3295 3296 3693 3694 
3299 3304 3705 3303 3308 3307 3312 3709 3311 
3713 3315 3316 3710 3714 3355 3320 3718 3323 
3328 3725 3722 3329 3326 3327 3332 3726 3729 
3294 3300 3331 3335 3733 3730 3341 3698 3339 
3737 3738 3741 3344 3343 3745 3348 3742 3749 
3347 3352 3746 3351 3753 3356 3750 3754 3359 
3358 3324 3360 3721 3363 3368 3367 3371 3369 
3769 3336 3734 3375 3340 3379 3380 3777 3778 
3383 3785 3781 3384 3782 3388 3387 3789 3392 
3786 3391 3395 3793 3396 3394 3397 3361 3364 
3399 3403 3404 3407 3802 3372 3770 3411 3809 
3376 3415 3774 3813 3814 3419 3420 3818 3817 
3423 3821 3424 3422 3822 3825 3427 3428 3432 
3433 3431 3430 3435 3398 3400 3437 3401 3439 
3408 3443 3841 3806 3845 3412 3810 3451 3447 
3849 3416 3455 3853 3459 3857 3460 3858 3861 
3463 3464 3468 3469 3467 3471 3466 3436 3475 
3473 3438 3440 3477 3479 3878 3448 3842 3483 
3885 3452 3487 3889 3846 3456 3495 3491 3854 
3850 3893 3497 3499 3897 3500 3894 3503 3505 
3502 3470 3472 3509 3511 3507 3513 3474 3476 
3515 3478 3444 3480 3881 3488 3523 3925 3882 
3492 3527 3929 3886 3531 3490 3496 3933 3890 
3539 3535 3541 3504 3508 3545 3506 3549 3512 
3547 3514 3517 3510 3551 3516 3520 3484 3519 
3559 3921 3528 3965 3563 3922 3961 3532 3926 
3567 3969 3536 3571 3575 3930 3538 3540 3577 
3544 3542 3543 3548 3585 3550 3546 3552 3587 
3553 3555 3556 3557 3957 3524 3560 3958 3599 
3997 3601 3203 3564 3962 3568 3605 3207 3572 
3966 3574 3213 3211 3576 3581 3579 3578 3580 
3584 3586 3582 3223 3583 3588 3589 3591 3592 
3595 3596 3994 3993 3239 3637 3600 3998 3645 
3608 3604 3643 3606 3610 3612 3611 3614 3613 
13 3616 3615 3618 3617 18 3620 3619 3661 
3622 3621 3624 22 3628 3663 3626 3632 3631 
65 3633 34 33 3636 3675 38 77 3640 
3679 3648 3647 3650 50 3649 3652 3651 3653 
54 3655 3656 3657 3659 3660 3699 3664 3668 
69 3667 3672 3671 70 73 74 3676 3644 
3715 3680 85 82 3681 3685 3683 3688 89 
3687 3692 3691 90 94 3695 3696 97 98 
3701 3697 3700 3704 3702 105 3703 3708 3706 
109 3707 106 3712 113 3711 110 3716 3719 
3720 125 3723 3728 126 3727 3732 130 3735 
3731 3736 137 134 3739 141 3744 145 3743 
142 3748 149 3747 146 3752 3751 3755 3756 
118 3757 3684 3759 3765 3763 3762 3768 169 
166 3766 3767 3772 173 170 3773 3771 3775 
138 3740 177 178 3779 3780 185 181 3783 
182 3784 3788 3787 3792 3791 3760 3790 3795 
161 3758 3724 3797 3761 3799 202 3805 3803 
3804 209 206 3807 3808 3811 3776 3815 213 
217 3819 218 3820 221 3823 3824 3828 3829 
3827 3826 3831 3794 3796 3833 3835 3800 3764 
3798 3801 3837 3839 242 3843 3844 245 249 
3812 210 3851 3847 214 3816 3855 253 257 
3859 3860 3865 3863 3862 3867 3830 3832 3869 
3871 3834 3836 3873 3875 3838 3840 3879 3877 
281 3848 285 3883 289 246 3852 3887 250 
254 293 3856 3891 3895 3896 3899 3901 3864 
3868 3905 3870 3866 3872 3907 3909 3911 3874 
3876 3913 3915 317 318 3917 3880 3919 282 
3888 325 3923 329 286 3892 3927 3931 290 
3935 3898 3937 3900 3904 3902 3903 3908 3945 
3943 3949 3906 3912 3947 3914 3953 3910 3916 
3951 3955 357 3884 3918 3920 321 3959 365 
322 3928 3963 361 326 3932 3967 3934 3973 
3936 3971 3940 3938 3939 3944 3941 3985 3942 
3948 3983 3946 3989 3952 3987 3954 3950 3956 
3991 358 397 3924 3960 3999 3603 1 362 
3964 3968 3609 3607 3972 3970 3975 3976 3974 
3978 3977 3981 3979 3980 3984 3625 3982 3623 
3988 3986 3990 3627 3992 3635 394 3995 3996 
3639 398 37 4000 
type 1 4000 int
1 1 1 1 1 1 1 1 1 
1 1 1 1 1 1 1 1 1 
1 1 1 1 1 1 1 1 1 
1 1 1 1 1 1 1 1 1 
1 1 1 1 1 1 1 1 1 
1 1 1 1 1 1 1 1 1 
1 1 1 1 1 1 1 1 1 
1 1 1 1 1 1 1 1 1 
1 1 1 1 1 1 1 1 1 
1 1 1 1 1 1 1 1 1 
1 1 1 1 1 1 1 1 1 
1 1 1 1 1 1 1 1 1 
1 1 1 1 1 1 1 1 1 
1 1 1 1 1 1 1 1 1 
1 1 1 1 1 1 1 1 1 
1 1 1 1 1 1 1 1 1 
1 1 1 1 1 1 1 1 1 
1 1 1 1 1 1 1 1 1 
1 1 1 1 1 1 1 1 1 
1 1 1 1 1 1 1 1 1 
1 1 1 1 1 1 1 1 1 
1 1 1 1 1 1 1 1 1 
1 1 1 1 1 1 1 1 1 
1 1 1 1 1 1 1 1 1 
1 1 1 1 1 1 1 1 1 
1 1 1 1 1 1 1 1 1 
1 1 1 1 1 1 1 1 1 
1 1 1 1 1 1 1 1 1 
1 1 1 1 1 1 1 1 1 
1 1 1 1 1 1 1 1 1 
1 1 1 1 1 1 1 1 1 