# vtk DataFile Version 4.0
Generated by LAMMPS
ASCII
DATASET POLYDATA
POINTS 4000 float
7.03363 -1.37197 1.31478 4.93528 -3.11118 1.41886 5.02986 -0.880005 -0.701306 
8.77434 -3.84794 1.59399 6.6664 -3.25249 3.60914 10.7768 -2.01338 1.46625 
9.08973 0.425031 1.31947 12.8294 -0.263585 1.39805 8.92495 -1.6341 3.62005 
11.0138 0.0604327 3.42275 12.5408 -2.21894 3.58664 14.4256 -2.77886 1.39271 
16.5906 -0.993038 1.50687 14.4958 -0.459801 3.43569 16.2857 -3.17758 3.66608 
17.9494 -3.37397 1.53397 20.1903 -1.69293 1.38179 22.2758 0.0600949 1.29044 
20.5707 0.384794 3.61561 18.3864 -1.16736 3.57673 19.9384 -3.7268 3.62471 
22.0074 -2.07746 3.4743 24.0671 -2.39302 1.19053 26.0257 -0.48928 1.311 
24.1354 -0.189136 3.42611 27.8144 -3.22923 1.33584 29.796 -1.4602 1.35097 
31.928 -1.72775 -0.861349 31.4269 -3.8668 1.47026 29.8215 0.759977 3.57885 
27.8503 -1.11074 3.56945 29.564 -3.28222 3.51202 29.7476 -3.45982 41.1898 
31.9437 0.247932 1.21097 35.8435 -0.65123 1.4894 33.509 -2.18829 1.27267 
35.6289 -2.72478 3.48583 35.6223 -2.46828 41.1618 5.32622 1.0281 1.2545 
7.71124 2.68888 1.51643 7.1745 0.648906 3.55333 5.58871 3.19354 3.36165 
9.65707 4.62337 1.26136 11.0758 2.07094 1.24983 9.33794 2.36825 3.61224 
11.07 4.32647 3.5674 12.6664 2.17639 3.33979 14.792 1.69473 1.53487 
13.2173 4.03778 1.31831 17.0751 3.13493 1.52515 14.9111 3.58227 3.62241 
15.2685 3.47388 -0.58796 18.7792 0.899697 1.42127 18.8668 2.82739 3.65041 
20.633 2.63959 1.48496 22.5463 2.35283 3.53016 20.8996 4.68758 3.57682 
19.0505 5.06129 1.59099 22.5356 2.15833 -0.682433 22.6919 4.23588 1.57759 
24.424 1.78032 1.40019 26.6471 3.47545 1.43795 24.7655 3.69601 3.38683 
24.8294 3.71951 41.2171 26.402 1.31033 3.34672 26.5489 1.11784 -0.830392 
28.3239 0.996889 1.30824 30.3797 2.59722 1.38353 28.4696 2.98874 3.47678 
28.4942 2.88184 41.0658 30.4902 4.77513 -0.650069 32.6454 4.11137 1.42007 
32.0461 2.30938 -0.902622 36.2919 3.49194 1.39778 34.2604 1.77222 1.25278 
36.0862 1.48317 3.44004 34.3882 3.87877 41.1531 8.05332 4.65111 3.50738 
6.00061 5.18991 1.66049 4.29201 7.76524 1.37352 8.16256 6.95323 1.4225 
8.07354 9.25501 3.45265 11.6215 6.3597 1.3954 9.8495 8.94409 1.49716 
9.56352 6.77962 3.61508 11.8564 8.3587 3.5253 15.268 5.49253 1.52085 
13.7561 7.94625 1.57074 17.4952 7.30072 1.36603 17.0869 5.42238 3.60332 
13.3997 5.88107 3.39007 15.6563 7.65815 3.41077 19.605 9.10541 1.2377 
19.316 7.14232 3.57949 21.0461 6.60291 1.48431 21.3566 8.6955 3.38004 
23.288 8.22252 1.40063 24.9923 5.89254 1.53346 26.8418 5.59593 3.49027 
26.9598 7.55918 1.26295 22.9629 6.14845 3.52484 30.7477 6.84347 1.31518 
28.648 5.06771 1.38907 28.9582 7.33832 3.46173 29.106 9.32656 1.40716 
31.22 8.61351 3.30339 34.7402 5.82574 1.24845 33.1054 8.3347 1.3904 
34.8979 7.96367 3.41503 3.81347 5.70063 3.43195 32.8662 6.26353 3.45007 
6.47501 9.35474 1.4135 4.73722 11.8153 1.35683 4.51082 9.70638 3.48428 
6.65128 13.6643 1.34753 8.4523 11.339 1.35814 8.80016 13.2474 3.43848 
10.6924 12.9653 1.44947 12.0581 10.5298 1.50004 10.2396 10.7861 3.63464 
14.2084 12.3313 1.37532 15.7569 9.70275 1.43623 13.9546 10.0929 -0.786279 
17.9546 11.3459 1.26009 17.7158 9.2622 -0.849666 15.9438 11.7063 -0.835936 
19.9596 13.0877 1.40413 19.8501 11.0627 -0.910904 21.6913 10.8478 1.40993 
21.8024 12.8183 3.46336 21.9904 12.5168 41.1773 23.9981 12.4626 1.38343 
25.4787 10.0211 1.32453 23.5023 10.2701 3.36488 25.5565 12.09 3.65447 
23.7588 10.2141 -0.740792 25.8655 12.0154 41.0782 27.6076 11.6811 1.3773 
31.4021 10.7452 1.38469 29.7594 13.291 1.44901 29.5435 11.3113 3.36228 
27.856 13.6116 3.486 29.4518 11.3253 -0.638217 35.0687 10.2167 1.30169 
33.5341 12.682 1.33736 33.3628 10.2597 3.49314 35.4721 12.0781 3.44373 
5.03792 16.1221 1.63612 7.01188 17.7643 1.44479 6.87505 15.7866 41.2818 
4.80326 14.008 3.43657 7.13674 15.5889 3.51277 8.76053 15.2749 1.34659 
10.7699 17.0735 1.39594 9.05525 17.4542 41.4036 12.6275 14.6938 1.32119 
12.9527 16.6731 -0.774151 10.5684 15.1586 3.42949 8.96139 17.4409 3.41769 
14.6448 16.4117 1.47069 16.2386 13.8247 1.37223 16.9075 18.0772 1.44235 
14.3944 14.3311 -0.962554 18.3412 15.64 1.21 22.1516 14.6736 1.40609 
20.5707 17.2168 1.35465 20.3605 15.0731 -1.02858 24.1511 14.1595 41.1607 
24.3549 16.4314 1.44083 26.0347 14.1542 1.44214 26.2254 16.1193 3.42326 
26.2686 16.2054 41.2712 24.1045 14.5766 3.53774 28.2025 15.6807 1.52925 
30.3192 17.438 1.39345 30.0539 15.2169 41.1285 28.2336 17.8257 3.49932 
30.1252 15.2707 3.64823 31.7376 15.0823 1.49225 31.9892 16.9007 -0.851429 
35.559 14.4051 1.2009 33.8456 16.7042 1.36859 32.0943 17.1089 3.47441 
33.717 14.6534 3.42365 5.25499 18.1327 3.42588 5.43463 20.3881 1.42725 
7.68002 21.8877 1.24168 7.31835 19.8653 3.52341 7.46844 19.7594 41.2644 
5.82347 22.2091 41.31 9.26694 19.4107 1.51588 11.299 21.1245 1.45374 
11.2112 19.065 41.305 12.9813 18.6607 1.43612 9.69715 21.4355 -0.68895 
15.1533 20.5143 1.46127 17.2428 22.2504 1.39219 16.9815 20.1138 3.45851 
15.3135 22.453 3.37939 14.9273 18.6022 41.3503 13.2475 21.0538 41.1539 
15.3955 22.3905 -0.811714 19.0686 19.7026 1.61117 19.2581 21.7807 3.49148 
21.0098 19.2801 3.4125 21.3091 21.1849 1.4122 21.0195 19.1141 -0.664979 
26.567 18.1063 1.3557 22.8659 18.9282 1.385 23.2261 20.9384 3.57081 
25.0198 20.425 1.34383 27.123 22.2766 1.43915 24.5747 18.3835 3.56274 
26.698 20.0106 3.50398 24.6709 18.4954 41.2584 22.9227 21.0507 41.2416 
26.8464 20.122 41.2474 28.5672 19.8896 1.56816 30.5578 19.6367 41.3272 
30.7748 21.5485 1.33123 30.5093 19.5597 3.45697 28.7195 21.9555 3.64508 
32.5862 19.1161 1.37238 35.9333 18.477 1.39204 34.3845 21.018 1.34432 
35.9951 20.7159 3.48416 36.1751 20.7863 41.1014 34.2296 19.0674 -0.874266 
32.5455 21.1836 3.35497 34.0404 18.8517 3.60741 3.8062 22.8914 1.23717 
5.88699 24.524 1.28453 4.12556 24.801 3.38146 4.36494 27.0567 1.35937 
6.23007 26.5488 41.2574 8.1597 26.1965 1.45532 6.23765 26.5018 3.46861 
8.03392 24.1888 41.2899 9.8225 23.7224 1.49655 11.82 25.3683 1.39876 
10.0278 26.0219 -0.835735 11.5106 23.3539 41.1852 9.83486 25.9343 3.51504 
13.3857 22.8729 1.36774 15.6258 24.4879 1.43404 13.7389 24.8327 3.46165 
13.9196 26.9843 1.35242 13.7975 24.9871 41.4152 16.0361 26.4497 41.1843 
17.786 26.1101 1.38505 19.5382 23.6985 1.39526 21.5743 25.5072 1.53756 
21.4532 23.4158 3.53166 19.7593 25.8223 3.5674 23.2435 23.0068 1.423 
25.2477 22.6487 3.51032 25.345 24.6698 1.36224 23.4879 25.3084 3.41929 
27.3096 26.6174 1.26235 28.9661 24.1165 1.43808 31.0604 25.8635 1.40165 
32.742 23.3037 1.15971 34.7447 25.1614 1.2647 34.4532 23.1882 3.30934 
32.9137 25.4911 3.42669 6.62648 28.7174 1.474 4.73068 31.0467 1.30164 
6.84504 30.61 41.3043 8.31455 28.2393 3.50774 8.36512 28.3272 41.2224 
6.70342 30.9557 3.4437 4.60215 28.9356 41.2097 10.4251 27.6973 1.50213 
8.79599 30.1759 1.38383 10.6376 29.7664 41.1274 12.3477 27.3575 -0.814193 
12.3072 27.2208 3.58371 12.5542 29.4048 1.08865 12.8358 31.3872 -0.94247 
14.5216 31.2388 1.45646 16.2749 28.578 1.44451 16.4619 30.5735 3.50829 
14.5155 28.8129 -0.725791 18.5349 30.2421 1.38319 19.9289 27.8571 1.33174 
18.1074 28.224 41.2771 20.08 30.181 -0.787486 21.9603 29.7051 1.12484 
21.9264 27.4255 41.4013 20.278 30.0072 3.46878 23.7211 27.2146 1.37194 
24.016 29.507 -0.820778 25.7028 29.0497 1.25015 25.9423 30.8429 3.40612 
24.2894 31.3818 1.21949 27.5558 28.5989 41.2459 27.7442 30.6438 1.33471 
29.6732 28.2878 1.32597 31.6277 30.0648 1.24765 29.5819 30.3764 41.2944 
31.1191 27.8859 41.1003 33.1309 27.6872 1.30707 35.1187 29.2331 1.16725 
34.9573 27.0637 41.0683 33.4013 29.5375 -1.02738 7.1967 32.5865 1.26722 
5.47318 35.0936 1.42309 5.0601 33.1196 3.25505 7.28982 34.8963 41.2797 
11.0026 31.8569 1.25072 9.24521 34.3689 1.59424 11.2231 34.1164 3.49692 
8.95141 32.4264 41.0876 13.0377 33.4925 1.43543 13.2147 35.6005 41.2465 
11.3987 35.943 1.47291 13.3661 35.6301 3.53193 15.2867 35.2153 1.4922 
16.8576 32.5624 1.48087 17.1349 34.8207 3.41894 14.8232 32.9507 41.2934 
17.1474 34.7687 41.335 19.0587 34.5102 1.47894 18.5988 32.3465 3.57299 
18.6191 32.5355 -0.829349 20.3221 32.0746 1.47556 20.7003 33.9701 3.37636 
22.4002 31.5444 3.36878 22.2179 31.7835 41.2025 20.7683 34.2119 41.1609 
22.7111 33.7633 1.2804 26.0038 33.3304 1.42766 24.6826 35.7315 1.36516 
24.5121 33.3941 3.54054 26.5704 35.2895 41.1578 22.8337 35.6957 3.60124 
26.4601 35.3076 3.42765 28.3049 34.8889 1.25607 29.8183 32.4071 1.38512 
31.8041 32.2005 3.36991 30.0579 34.5677 41.2276 31.7217 31.99 -0.733556 
32.0445 34.1068 1.23784 33.6746 31.5472 1.23158 35.7138 33.5356 1.30892 
33.8869 33.8408 3.35041 7.52414 36.7361 1.47503 5.95822 39.0564 1.50367 
7.83926 38.8194 -0.606463 9.70419 38.3108 1.6031 11.5761 38.0851 41.3085 
11.8737 40.0475 1.3439 9.5778 36.3037 -0.560564 13.5653 37.6684 1.34208 
15.9156 39.0916 1.4864 15.506 36.9626 41.2988 17.4236 36.6976 1.48879 
17.627 38.7397 3.53422 13.9077 39.4852 -0.744711 19.3823 38.6782 1.26245 
20.9865 36.226 1.34428 21.2908 40.7351 1.48689 21.1166 38.331 3.49261 
22.8314 38.1003 1.21475 26.7519 37.3061 1.40019 25.0876 39.6885 1.23796 
23.0132 40.1467 -0.837858 30.4489 36.7927 1.31646 28.7831 39.0956 1.26618 
28.5593 36.8476 3.40527 34.1459 36.0119 1.25149 36.4796 39.4993 3.36408 
36.3174 37.554 1.37765 32.5791 38.5127 1.27591 34.1697 38.0398 3.38647 
34.5263 40.218 1.51017 34.5863 37.9548 -0.751163 32.1575 36.2085 3.48116 
6.54746 43.3115 1.50466 4.3755 41.6083 1.41181 6.34937 41.3018 -0.755969 
4.59041 43.6676 -0.735741 7.96366 40.8113 1.48758 8.48248 42.7815 3.624 
9.97355 40.3224 3.64507 10.1852 42.4054 1.54094 12.4463 44.1927 1.73394 
12.1652 42.0616 3.57289 12.3602 41.8437 41.5109 14.0966 41.4809 1.55644 
14.1097 43.9087 -0.532938 15.7891 41.2291 41.3468 16.0366 43.4593 1.5641 
17.6279 41.1903 1.5343 14.3365 43.7067 3.64805 19.8221 43.0906 1.42354 
17.8008 43.2188 -0.682619 21.8981 44.5448 1.50013 17.9832 43.3172 3.63827 
19.5721 40.8166 3.52404 21.697 42.406 3.55905 21.5164 42.5276 -0.656394 
23.6278 42.0574 1.31805 25.5461 43.9416 1.42566 25.2754 41.767 41.1873 
[...]
POINT_DATA 4000
FIELD FieldData 6
id 1 4000 int
7 3 2 372 766 11 12 16 409 
410 413 15 20 414 417 19 24 63 
461 418 421 422 28 67 465 32 36 
34 35 473 469 430 33 75 4 40 
401 38 8 47 406 445 52 51 449 
450 453 55 56 60 454 54 59 458 
64 462 501 99 62 103 68 72 505 
66 466 69 71 76 470 70 113 80 
74 43 79 402 78 446 48 83 87 
486 91 92 489 490 95 96 100 497 
493 494 139 498 104 541 108 107 509 
112 502 115 111 513 116 517 44 119 
481 442 478 88 123 482 128 127 526 
132 131 529 136 135 133 140 137 134 
144 141 143 542 142 148 147 545 549 
145 146 151 120 155 514 553 153 84 
159 518 521 163 168 165 522 565 167 
172 166 171 170 569 566 176 175 180 
173 179 183 184 181 185 187 152 550 
189 546 156 195 154 593 554 160 197 
124 199 597 558 562 203 208 605 205 
202 207 212 209 211 206 215 220 617 
614 174 213 214 219 621 582 223 221 
191 188 586 192 231 589 590 186 225 
190 196 194 235 594 633 200 164 239 
601 201 198 637 598 204 243 641 244 
242 248 642 245 247 251 249 210 646 
216 255 653 256 253 254 259 224 228 
625 622 227 629 232 626 271 236 275 
240 279 638 677 283 284 285 685 246 
682 281 252 287 289 250 650 291 290 
295 260 658 293 264 263 258 262 268 
265 662 267 266 272 709 307 270 311 
276 315 313 274 280 319 278 317 288 
323 721 325 292 327 690 286 296 333 
331 694 300 299 698 294 298 304 701 
301 303 702 705 305 302 308 312 347 
706 349 745 749 351 316 714 353 314 
355 320 359 757 328 363 365 332 330 
336 326 335 340 337 339 738 334 344 
343 383 742 348 352 387 385 356 391 
750 360 761 324 395 797 399 358 754 
368 364 362 1 367 769 730 371 376 
773 373 375 374 377 380 379 774 384 
378 23 778 781 782 382 388 27 386 
392 31 396 29 437 39 400 794 398 
405 407 768 805 1166 411 772 412 416 
810 809 415 420 817 419 424 463 426 
428 467 826 434 432 869 471 830 436 
873 438 475 403 440 801 838 408 447 
806 845 846 451 452 850 853 455 456 
457 460 857 459 499 464 901 862 503 
468 507 905 866 472 474 476 874 909 
870 477 441 479 443 404 877 841 802 
485 448 487 483 488 885 842 492 491 
495 496 894 897 500 898 539 941 504 
543 506 508 512 902 906 945 511 480 
515 913 444 519 881 878 525 882 523 
528 925 527 532 531 530 533 535 536 
537 534 937 540 538 577 579 938 544 
977 981 548 547 949 510 516 557 520 
555 910 957 914 484 559 922 563 568 
567 572 570 571 575 573 576 574 615 
581 578 580 585 583 584 978 985 552 
551 950 946 556 993 595 954 561 560 
997 524 599 602 603 608 604 1005 609 
606 607 612 611 1006 613 610 616 620 
1010 619 588 982 587 591 592 631 1029 
986 989 990 596 635 1033 994 600 564 
639 1037 645 643 1042 644 1045 648 649 
647 1049 652 657 651 655 656 618 1050 
1018 623 624 628 1025 1022 627 669 632 
1026 1069 630 634 673 1030 671 636 675 
640 679 681 683 684 1085 689 693 687 
688 1086 691 654 660 1054 659 1058 661 
664 663 1062 665 668 1061 1065 666 667 
1066 707 672 1109 670 711 674 713 676 
715 678 717 718 680 719 1118 725 723 
724 1122 1121 686 692 727 1125 1090 695 
1093 697 700 1097 1094 699 704 703 1105 
708 712 1106 747 1149 1145 1110 710 753 
751 716 1153 755 758 720 759 1157 1158 
760 726 722 728 763 1161 729 733 696 
731 1129 736 734 737 735 740 739 741 
744 743 1142 746 785 748 789 752 787 
793 756 791 1193 799 1154 795 800 1197 
762 765 767 764 1165 732 1162 1169 770 
771 776 1170 1130 1173 777 775 780 779 
1174 783 784 423 1178 425 786 788 427 
1186 429 790 792 433 431 796 798 439 
435 803 807 1202 1205 811 1172 813 816 
814 815 820 1217 822 821 818 819 861 
824 863 865 828 867 1265 832 871 1234 
875 836 840 804 1277 1238 1206 808 847 
1245 1246 812 849 851 852 1249 1250 856 
854 855 860 1257 858 859 864 1261 1301 
903 868 907 1266 1305 872 876 1273 1270 
1313 1274 880 843 879 1241 1278 848 883 
886 887 1285 890 889 891 892 1289 893 
895 896 900 899 939 904 1298 1341 943 
908 912 1302 1309 917 911 915 916 1310 
1314 844 919 1242 888 923 928 927 926 
929 932 930 931 1326 934 1337 933 935 
936 940 979 1338 944 1342 942 948 947 
1346 951 920 955 1357 953 1349 1353 918 
921 884 959 1318 1321 965 962 963 968 
1322 969 966 967 972 970 971 1370 973 
976 974 975 1015 1017 980 983 984 1385 
987 952 1389 956 1393 960 1354 995 1350 
961 958 924 1361 999 1358 1397 1002 1003 
1008 1402 1009 1007 1012 1406 1011 1013 1014 
1016 1020 1417 1413 1021 1019 1023 1421 988 
991 992 1031 1390 996 1035 1394 1433 1001 
1000 998 1437 1401 964 1039 1398 1041 1043 
1044 1004 1048 1046 1047 1052 1053 1057 1055 
1051 1454 1056 1414 1024 1059 1028 1461 1422 
1027 1426 1032 1469 1071 1430 1034 1073 1036 
1075 1434 1038 1077 1040 1079 1438 1081 1082 
1083 1084 1481 1482 1089 1087 1088 1091 1450 
1095 1060 1493 1497 1064 1063 1458 1068 1462 
1465 1067 1072 1107 1509 1070 1111 1113 1074 
1076 1115 1513 1470 1478 1078 1117 1080 1119 
1123 1124 1521 1525 1092 1127 1096 1486 1529 
1098 1100 1494 1099 1498 1101 1104 1102 1103 
1502 1505 1108 1506 1112 1147 1151 1116 1114 
1155 1120 1159 1160 1126 1198 1128 1163 1561 
1133 1131 1132 1136 1530 1526 1134 1137 1135 
1140 1138 1139 1534 1537 1538 1141 1144 1143 
1541 1189 1185 1148 1146 1152 1187 1546 1150 
1156 1191 1593 1550 1199 1554 1195 1200 1194 
1594 1168 1164 1201 1167 1171 1176 1570 1569 
1573 1177 1175 1180 1179 1578 1181 1184 1182 
1183 823 825 1188 827 829 1190 833 1192 
831 1196 1590 834 837 839 835 1237 1208 
1204 1602 1207 1641 1209 1210 1610 1211 1213 
1216 1606 1214 1215 1220 1221 1222 1218 1219 
1224 1263 1618 1661 1226 1228 1267 1626 1269 
1232 1230 1236 1235 1634 1240 1279 1638 1247 
1243 1642 1645 1253 1212 1251 1252 1653 1254 
1255 1256 1260 1258 1259 1264 1701 1262 1303 
1268 1272 1662 1271 1276 1673 1670 1275 1674 
1315 1244 1280 1717 1678 1248 1283 1287 1286 
1646 1685 1686 1681 1290 1291 1292 1689 1293 
1294 1297 1295 1296 1697 1300 1694 1299 1339 
1304 1306 1308 1307 1312 1705 1709 1706 1311 
1316 1753 1713 1710 1281 1317 1319 1320 1714 
1718 1325 1282 1288 1323 1328 1327 1682 1330 
1329 1332 1331 1334 1333 1336 1335 1734 1377 
1340 1344 1741 1343 1742 1738 1345 1348 1745 
1347 1746 1352 1351 1355 1356 1750 1754 1749 
1284 1359 1721 1362 1365 1363 1368 1762 1765 
1369 1366 1367 1372 1371 1769 1373 1374 1376 
1375 1777 1381 1382 1378 1379 1778 1781 1384 
1383 1782 1388 1387 1391 1360 1395 1790 1324 
1399 1761 1797 1758 1405 1403 1408 1404 1409 
1407 1412 1806 1809 1410 1380 1411 1415 1420 
1817 1418 1419 1818 1424 1821 1425 1386 1392 
1423 1822 1427 1431 1825 1396 1794 1435 1833 
1400 1364 1798 1439 1441 1442 1445 1443 1444 
1842 1448 1449 1446 1451 1447 1453 1416 1455 
1457 1460 1459 1463 1861 1429 1428 1432 1869 
1826 1473 1471 1436 1475 1873 1477 1440 1479 
1485 1483 1484 1885 1489 1452 1487 1491 1846 
1889 1456 1893 1496 1495 1464 1499 1468 1901 
1466 1467 1472 1909 1870 1511 1474 1476 1515 
1517 1480 1519 1918 1917 1488 1523 1882 1925 
1490 1492 1527 1929 1890 1531 1886 1533 1535 
1933 1500 1501 1504 1898 1503 1545 1508 1549 
1507 1512 1547 1949 1553 1510 1516 1551 1953 
1518 1514 1557 1555 1558 1520 1559 1560 1957 
1921 1565 1522 1528 1563 1922 1965 1532 1567 
1926 1536 1540 1539 1973 1938 1542 1544 1543 
1942 1941 1585 1548 1589 1552 1587 1556 1591 
1597 1961 1524 1595 1599 1954 1958 1562 1203 
1564 1962 1601 1568 1566 1605 1571 1572 1966 
1970 1576 1574 1577 1575 1977 1580 1579 1581 
1584 1582 1583 1223 1225 1586 1588 1227 1592 
1229 1233 1231 1596 1598 1239 1600 1604 1643 
2002 1608 1609 1613 1612 1616 2006 1614 1617 
1615 1620 2014 1621 1619 1624 1622 1663 2061 
2018 1665 1628 2026 1632 1630 1631 1633 1636 
1635 2033 1675 1677 1640 1679 2077 2042 1648 
1644 2081 1650 1649 1647 1651 2046 1654 1655 
1656 1657 1660 1658 1659 1664 2062 2058 1669 
1666 1668 2065 1667 1672 2066 1671 2070 1676 
2073 2074 1715 1680 1719 2078 2117 1683 1684 
1687 1652 1690 1692 1691 1693 1695 1696 1700 
1698 1699 1704 1702 1703 1708 1707 1712 2109 
2113 1711 1716 2153 1751 2110 1720 1755 2157 
2118 1725 1688 1723 1728 1727 1729 1726 1732 
1730 1731 1737 1733 1736 1735 1739 1744 1743 
2142 2138 1748 1747 2146 1752 2149 1756 1791 
2150 1757 1759 1760 2154 1722 1763 1768 1770 
1766 1767 1772 2166 1771 1773 1775 1740 2177 
1780 1779 1783 1784 1785 2185 1788 1786 1787 
2186 1793 1789 1792 1795 1796 2189 2229 2190 
2194 1724 1799 2161 1805 1802 2162 1803 1808 
1807 1811 2170 1776 1813 1774 1815 2213 2174 
1820 2217 1819 1824 1829 1823 2222 1827 1828 
2225 1831 1835 1801 1837 1800 2201 1764 2198 
1839 1841 1845 1804 1843 1844 1847 2245 1810 
1849 1812 1851 1814 1853 1816 1855 1857 2257 
1854 2254 1858 1859 1860 1864 1865 1832 1863 
2262 1867 2265 2266 1830 1871 1834 1836 1875 
1838 1877 1840 1879 1881 1848 1883 2285 2242 
1850 1852 1887 2289 1891 1894 1856 1896 1895 
2294 2293 1897 1899 1900 1862 1903 2301 1866 
1868 1872 2309 1911 1874 1913 1876 2274 1915 
2313 1878 1880 1919 2317 2281 1888 1923 2282 
2325 1892 1927 2286 1931 2290 1930 1936 1937 
1935 1902 1939 1905 1904 1908 2341 1907 1906 
1947 1912 1910 2310 1951 1916 2353 1914 1955 
2314 1884 1920 2318 1928 1963 1924 2361 1969 
1932 1967 1972 2326 1934 1975 1971 2370 1940 
1944 1943 2342 1945 1985 1948 2385 1946 1989 
1952 1987 1950 1993 1991 1956 2354 1959 1960 
1999 2357 1603 1964 2362 2001 1968 2005 1607 
1611 2366 2009 1974 1976 1980 2374 1979 1981 
1982 1978 1984 1623 1983 2381 1625 1988 1986 
1627 1629 1992 1994 1990 1995 1996 1637 2037 
1997 1998 1639 2000 2041 2043 2004 2045 2008 
2047 2049 2445 2010 2051 2449 2016 2017 2020 
2414 2021 2019 2024 2022 2425 2422 2418 2028 
2027 2029 2032 2426 2030 2034 2031 2035 2036 
2433 2075 2434 2038 2040 2079 2044 2083 2481 
2442 2050 2053 2048 2052 2087 2485 2057 2054 
2055 2056 2060 2059 2063 2064 2461 2068 2069 
2067 2072 2469 2071 2076 2470 2513 2474 2115 
2119 2080 2517 2478 2085 2082 2084 2159 2088 
2086 2089 2091 2092 2090 2093 2094 2095 2096 
2097 2099 2102 2101 2104 2103 2502 2105 2108 
2505 2106 2107 2506 2112 2111 2116 2151 2114 
2120 2155 2557 2518 2125 2123 2121 2124 2127 
2128 2129 2126 2130 2132 2131 2133 2098 2135 
2100 2137 2141 2139 2144 2143 2542 2541 2145 
2148 2545 2147 2193 2152 2156 2191 2593 2549 
2158 2160 2195 2554 2165 2122 2168 2163 2561 
2169 2167 2171 2173 2136 2573 2134 2175 2140 
2181 2178 2179 2184 2183 2578 2581 2182 2188 
2187 2192 2231 2590 2197 2196 2199 2200 2598 
2205 2202 2203 2207 2204 2566 2209 2172 2211 
2176 2215 2180 2220 2617 2214 2614 2221 2218 
2219 2224 2226 2223 2622 2227 2228 2626 2230 
2232 2233 2236 2237 2235 2164 2239 2601 2241 
2208 2243 2206 2247 2210 2249 2212 2251 2610 
2253 2216 2255 2258 2261 2259 2260 2658 2264 
2267 2263 2268 2269 2234 2272 2273 2271 2275 
2238 2277 2240 2279 2638 2283 2248 2246 2252 
2287 2250 2291 2256 2296 2295 2298 2297 2300 
2299 2304 2303 2305 2307 2705 2270 2311 2709 
2276 2315 2278 2244 2280 2288 2323 2721 2725 
2329 2292 2327 2729 2331 2690 2330 2730 2333 
2336 2335 2334 2337 2340 2339 2302 2738 2306 
2349 2343 2308 2312 2347 2745 2351 2316 2710 
2321 2320 2284 2319 2718 2359 2717 2365 2322 
2328 2363 2324 2722 2332 2369 2367 2726 2769 
2373 2377 2371 2376 2375 2338 2379 2344 2345 
2348 2742 2346 2389 2352 2387 2785 2350 2355 
2356 2358 2399 2360 2758 2757 2003 2364 2368 
2762 2405 2372 2007 2766 2012 2013 2011 2015 
2380 2410 2413 2378 2384 2382 2383 2023 2782 
2025 2388 2386 2392 2390 2391 2393 2394 2395 
2396 2794 2790 2397 2398 2039 2400 2437 2441 
2402 2404 2443 2841 2408 2446 2447 2406 2846 
2845 2452 2849 2451 2453 2420 2814 2421 2419 
2423 2428 2788 2427 2429 2432 2826 2829 2430 
2431 2830 2436 2435 2477 2438 2440 2479 2877 
2475 2444 2483 2881 2842 2489 2450 2448 2487 
2488 2893 2454 2455 2456 2457 2459 2857 2462 
2424 2463 2465 2468 2466 2467 2472 2869 2866 
2473 2471 2476 2873 2870 2519 2515 2480 2878 
2521 2482 2484 2523 2918 2921 2559 2490 2486 
2492 2491 2889 2493 2497 2460 2495 2458 2499 
2858 2898 2464 2501 2504 2503 2901 2509 2508 
2507 2512 2909 2906 2553 2510 2511 2516 2953 
2514 2555 2520 2914 2957 2525 2524 2522 2558 
2599 2958 2527 2925 2526 2529 2531 2496 2533 
2933 2537 2494 2535 2500 2894 2937 2538 2498 
2539 2544 2941 2543 2546 2548 2547 2945 2550 
2552 2551 2556 2591 2950 2597 2595 2560 2997 
2565 2528 2563 2567 2922 2562 2569 2530 2532 
2571 2536 2534 2575 2540 2577 2579 2584 2583 
2585 2582 2586 2982 2588 2587 2985 2589 2592 
2631 2633 2594 2596 2635 2600 2994 2998 3033 
2605 2568 2607 2603 2570 2609 2572 2611 2613 
2574 2576 2615 2580 2620 3017 2974 2618 2619 
2621 2624 3018 2625 2623 2627 2628 2667 3026 
2629 2630 2669 2632 2671 2637 2634 2636 2564 
2639 2602 2606 2645 2608 2643 2647 2649 2612 
2651 2653 2654 2657 2616 2655 2659 2660 2661 
2664 2662 2665 2663 2668 2666 2673 2707 2670 
2675 2672 3073 2677 2641 2604 2640 3001 3038 
2685 2642 2648 2683 2646 2650 2689 2652 2687 
2691 2694 2656 2693 2696 2695 2697 2701 2700 
2699 2698 2704 2702 2706 2703 2708 2713 2674 
2711 2676 3074 2681 2678 2680 2679 2644 3078 
3081 2682 2688 2723 3125 2686 2692 2727 2731 
3086 2733 2736 2734 2735 2737 2740 2739 2741 
2744 2743 2749 2712 2747 3110 3145 3113 2714 
2716 2715 3114 2720 2719 2684 3117 2728 2763 
2761 2765 3161 3165 2724 2732 2767 2772 2773 
2771 2776 2770 2774 2775 2777 2780 2781 2779 
2750 2748 2746 2752 2751 3150 2753 2754 2755 
2756 3153 3154 3157 2759 2760 2799 2797 2401 
2403 2764 2768 2407 2409 2412 2809 2417 2411 
2416 2415 2778 2784 2783 3185 3178 2786 2787 
2789 2792 3186 2791 2793 2795 2796 3190 2798 
2439 2800 2802 2804 2843 2808 3241 2847 2851 
3249 2853 2816 2820 3217 3182 2821 2819 3221 
2825 2828 2823 3222 3218 2827 2832 3226 2834 
2831 3230 2833 2836 2835 3233 2838 2840 2879 
3238 2875 3277 2844 2883 3281 3242 2850 2885 
2848 2852 2887 3246 3250 3253 2818 2856 2855 
2859 2861 2862 2822 2824 2863 3261 3262 2865 
2868 3265 2867 2872 3269 2913 2871 2876 3270 
3273 2874 2917 2915 3274 2880 2919 3278 3317 
2882 3285 2884 2959 2888 3282 2891 2892 2890 
3289 2854 2897 2860 2895 2899 3297 3293 2864 
2904 3301 2902 2903 2905 2908 2907 2912 3309 
3306 2910 3313 2911 2916 3353 3310 2951 2955 
2920 2886 2923 2924 3321 2927 2928 2926 2929 
2931 2896 3329 3326 2900 2935 2938 2942 2939 
2944 2943 2946 2948 2947 2949 2993 2952 2956 
2991 3350 3393 2954 2995 2960 3354 3358 2965 
2963 2967 3322 2961 2969 2930 2932 2971 2973 
2936 2934 2975 2977 2940 3377 3334 2978 2979 
2981 2983 2984 2986 2988 2987 3029 2990 2989 
2992 3031 2996 2999 3000 2962 2966 3005 2968 
3007 2970 3009 2972 3011 3013 2976 3015 3374 
2980 3020 3414 3019 3021 3024 3022 3025 3023 
3027 3028 3069 3030 3032 3036 3067 3034 3035 
2964 3037 3039 3045 3002 3006 3003 3008 3043 
3445 3406 3047 3010 3049 3012 3051 3014 3053 
3054 3057 3016 3055 3453 3060 3058 3061 3059 
3064 3062 3066 3065 3063 3068 3465 3072 3071 
3075 3070 3004 3040 3042 3085 3048 3083 3442 
3089 3046 3052 3087 3050 3091 3093 3094 3056 
3096 3095 3097 3098 3101 3099 3100 3104 3498 
3102 3105 3106 3103 3107 3108 3509 3109 3077 
3111 3076 3080 3513 3041 3079 3044 3441 3478 
3481 3082 3088 3123 3090 3129 3092 3127 3131 
3130 3133 3134 3136 3135 3137 3138 3141 3140 
3139 3541 3143 3112 3147 3116 3115 3510 3514 
3121 3118 3120 3517 3119 3084 3518 3521 3122 
3128 3163 3561 3126 3169 3132 3167 3173 3170 
3171 3176 3174 3175 3177 3179 3144 3181 3146 
3149 3142 3148 3152 3151 3550 3585 3546 3155 
3156 3554 3553 3197 3159 3124 3160 3158 3199 
3557 3162 2805 2801 2803 3164 3168 2806 3166 
2812 3172 2807 3566 3209 2810 2813 2811 2815 
3213 3180 2817 3184 3183 3188 3582 3189 3187 
3192 3589 3586 3193 3191 3194 3195 3196 3594 
3198 2837 2839 3200 3597 3237 3202 3204 3243 
3641 3245 3210 3208 3212 3216 3613 3214 3215 
3220 3614 3219 3224 3621 3225 3228 3622 3229 
3227 3626 3232 3629 3234 3231 3630 3236 3634 
3235 3275 3240 3279 3638 3248 3244 3645 3646 
3247 3251 3252 3256 3653 3649 3254 3257 3255 
3654 3260 3657 3259 3263 3662 3665 3268 3266 
3267 3272 3666 3271 3276 3673 3713 3315 3280 
3319 3717 3678 3286 3283 3284 3686 3287 3685 
3681 3292 3291 3290 3295 3296 3694 3693 3258 
3299 3697 3302 3264 3304 3303 3305 3308 3307 
3312 3709 3705 3311 3316 3351 3753 3710 3318 
3357 3314 3355 3320 3714 3718 3325 3288 3323 
3328 3682 3327 3725 3332 3333 3331 3726 3729 
3294 3335 3300 3337 3298 3341 3339 3344 3738 
3342 3343 3338 3345 3348 3346 3347 3349 3352 
3749 3356 3391 3750 3754 3359 3360 3721 3757 
3365 3363 3368 3362 3765 3369 3330 3367 3371 
3373 3336 3773 3769 3375 3340 3380 3777 3378 
3382 3381 3379 3778 3383 3384 3385 3386 3388 
3387 3389 3390 3392 3395 3396 3429 3394 3397 
3324 3361 3399 3758 3366 3405 3403 3407 3401 
3370 3409 3372 3411 3376 3413 3417 3415 3774 
3420 3418 3421 3419 3818 3424 3422 3425 3426 
3423 3427 3428 3432 3433 3430 3431 3435 3437 
3400 3364 3398 3439 3402 3404 3408 3443 3447 
3449 3410 3412 3451 3454 3457 3416 3455 3460 
3814 3857 3458 3461 3459 3464 3861 3462 3466 
3463 3865 3467 3869 3469 3434 3473 3471 3436 
3475 3438 3440 3477 3479 3877 3838 3485 3448 
3483 3450 3446 3489 3452 3487 3491 3493 3456 
3495 3494 3497 3501 3499 3500 3503 3862 3505 
3468 3472 3507 3470 3511 3474 3476 3515 3874 
3913 3444 3480 3917 3525 3482 3488 3523 3529 
3486 3492 3527 3490 3531 3534 3530 3496 3533 
3536 3535 3537 3502 3539 3504 3508 3506 3549 
3512 3547 3949 3551 3516 3910 3520 3484 3519 
3918 3559 3914 3522 3528 3563 3565 3965 3569 
3526 3532 3567 3572 3926 3570 3573 3571 3575 
3540 3577 3938 3538 3542 3544 3543 3942 3545 
3548 3985 3552 3587 3946 3989 3945 3555 3556 
3954 3950 3558 3524 3560 3599 3957 3201 3205 
3562 3203 3564 3601 3962 3568 3206 3207 3211 
3574 3576 3580 3579 3581 3578 3584 3978 3223 
3583 3982 3588 3625 3592 3986 3590 3591 3593 
3595 3596 3990 3993 3598 3997 3239 3600 3998 
5 3602 3608 3604 3607 10 9 3610 3606 
3611 13 3616 14 3617 3615 17 3620 3618 
21 18 3619 22 61 3624 3663 3628 26 
65 3632 73 3633 30 3631 3636 3635 3675 
77 3677 3640 3679 6 3642 45 3643 3647 
49 3650 3612 50 3652 3651 53 3656 57 
3655 3660 58 3661 3658 3659 101 3664 3669 
3668 3667 3672 3670 3671 3676 3674 3715 41 
3644 3680 42 46 85 86 3648 3683 3687 
3688 89 90 3689 3692 3691 3690 97 94 
93 3695 3696 3700 98 102 3699 3701 3704 
3702 3703 105 3706 3708 109 106 3707 3712 
114 110 3711 3716 3751 81 117 3719 3720 
82 126 125 3723 3728 3727 129 130 3732 
3731 3730 3733 3737 3735 3736 3698 3741 3739 
3744 3742 3743 3745 3748 3746 3747 150 149 
3752 3755 3756 121 157 118 3684 3759 122 
162 3762 3722 3763 3768 169 3766 3767 3772 
3771 177 3734 3775 3740 3780 3781 3782 138 
178 3779 182 3783 3784 3785 3788 3786 3787 
193 3789 3790 3793 3791 3760 3795 161 3761 
3797 158 3724 3799 3805 3802 3803 3808 3770 
3809 3807 3811 3813 3817 3776 3815 217 3820 
3821 3819 218 3824 3822 3829 3823 3825 3792 
3827 3831 233 3833 3794 3796 3835 237 3801 
3837 3800 3764 3798 3839 3845 241 3841 3843 
3844 3806 3847 3849 3810 3812 3851 257 3853 
3854 3816 3855 261 3858 3859 3860 222 3863 
226 229 269 3826 3828 3832 230 3830 3871 
273 234 3834 3836 3873 3875 277 3804 238 
3840 3879 3842 3885 3848 3883 3846 3889 3850 
3852 3887 3891 3893 3856 3896 297 3895 3894 
3897 3901 3899 3864 3868 309 3909 3867 3866 
3872 3907 3870 3911 3876 3915 3878 3881 318 
3880 3919 3882 282 3925 3888 3923 329 3930 
3929 3886 3892 3927 3890 3931 3933 3935 3937 
3900 3898 3902 3904 3905 3903 306 345 3908 
3906 3912 3947 310 3953 3916 3951 321 3955 
357 3921 3884 3920 322 361 3922 3961 3928 
3963 3969 3932 3967 3971 3934 3973 3936 3940 
338 3939 341 342 3944 3941 3943 3948 389 
346 3952 3987 350 393 3956 3991 397 3958 
354 3959 3924 3960 3999 366 3603 3964 3605 
3968 370 369 3609 3966 3972 3970 3976 3975 
3974 3977 3980 3979 3981 381 3984 3983 3623 
25 3988 3627 3992 390 394 3994 3995 3996 
37 3637 3639 4000 
type 1 4000 int
1 1 1 1 1 1 1 1 1 
1 1 1 1 1 1 1 1 1 
1 1 1 1 1 1 1 1 1 
1 1 1 1 1 1 1 1 1 
1 1 1 1 1 1 1 1 1 
1 1 1 1 1 1 1 1 1 
1 1 1 1 1 1 1 1 1 
1 1 1 1 1 1 1 1 1 
1 1 1 1 1 1 1 1 1 
1 1 1 1 1 1 1 1 1 
1 1 1 1 1 1 1 1 1 
1 1 1 1 1 1 1 1 1 
1 1 1 1 1 1 1 1 1 
1 1 1 1 1 1 1 1 1 
1 1 1 1 1 1 1 1 1 
1 1 1 1 1 1 1 1 1 
1 1 1 1 1 1 1 1 1 
1 1 1 1 1 1 1 1 1 
1 1 1 1 1 1 1 1 1 
1 1 1 1 1 1 1 1 1 
1 1 1 1 1 1 1 1 1 
1 1 1 1 1 1 1 1 1 
1 1 1 1 1 1 1 1 1 
1 1 1 1 1 1 1 1 1 
1 1 1 1 1 1 1 1 1 
1 1 1 1 1 1 1 1 1 
1 1 1 1 1 1 1 1 1 
1 1 1 1 1 1 1 1 1 
1 1 1 1 1 1 1 1 1 
1 1 1 1 1 1 1 1 1 
1 1 1 1 1 1 1 1 1 