# vtk DataFile Version 4.0
Generated by LAMMPS
ASCII
DATASET POLYDATA
POINTS 4000 float
5.27693 1.41351 1.41341 3.36535 1.53568 -0.590102 3.25347 -0.672253 1.34891 
1.53944 -0.668195 3.41478 8.97617 1.30064 1.32713 7.06398 1.40528 -0.726038 
7.17266 3.41312 1.49335 7.13637 -0.709881 1.27796 8.8649 3.45602 -0.706732 
12.8387 1.57486 1.30564 10.877 3.4255 1.3104 10.9812 -0.649826 1.36615 
12.7917 -0.663856 -0.723064 16.7088 1.26786 1.20846 16.5428 3.41134 3.31605 
16.4725 -0.655073 3.32366 14.6708 3.4173 1.23748 14.6234 -0.580088 1.39227 
14.6803 1.42271 3.39079 16.7102 3.37391 -0.686963 20.251 1.31796 1.20865 
18.4977 3.44615 1.49174 22.1167 3.4272 1.48788 22.089 1.25206 3.43272 
22.0858 1.28411 -0.627848 23.9342 1.43941 1.34003 25.7572 1.33638 3.31944 
25.9315 -0.706392 1.25621 23.998 3.48259 3.43157 27.7001 1.29623 1.45772 
29.5031 1.1435 -0.645193 29.6266 3.21512 1.46928 31.617 1.26813 1.26297 
33.2826 3.42814 1.33699 33.5718 -0.685199 1.49941 31.5641 3.38381 3.41627 
38.9833 1.46484 1.3756 35.4096 1.25619 1.33101 37.2243 1.5098 3.44187 
3.32919 3.50617 1.46183 5.28285 5.5051 1.44021 5.25106 7.67697 3.41714 
3.38997 5.76072 3.44819 5.37383 3.53226 -0.714102 3.38122 5.67258 -0.457514 
9.11797 5.4457 1.17826 7.15127 5.49091 3.37211 7.21519 7.55709 1.36698 
7.1716 5.68113 -0.695482 9.11726 7.58131 -0.623847 12.892 5.49081 1.46319 
11.0233 7.6069 1.44976 12.7561 7.56916 -0.698638 16.5671 5.41185 1.20328 
14.6706 7.5222 1.43924 20.155 5.51034 1.3644 18.6231 7.62376 1.45323 
20.2093 3.5507 -0.688164 22.1397 5.57084 -0.731083 20.2247 7.69807 -0.714122 
25.9224 3.48245 1.17982 23.9378 5.52304 1.36224 25.9731 5.58912 3.46179 
27.8645 5.52929 1.44393 31.3126 5.54316 1.19102 33.4161 5.61078 3.14434 
31.4705 7.65553 -0.703877 38.9838 5.62492 1.63913 37.1898 3.47891 1.42549 
35.2909 5.48823 1.25158 37.2653 7.53277 1.35176 37.1088 5.47334 -0.575793 
37.0126 5.54212 3.28354 35.327 7.50688 -0.606756 39.0107 7.61464 -0.668416 
3.23865 7.71393 1.44422 5.32737 9.70694 1.28459 5.19619 11.8301 3.40259 
3.33239 11.7505 1.49067 1.58735 7.84444 3.46294 5.20211 7.73129 -0.482874 
3.27531 9.76625 -0.568465 8.94379 9.78961 1.31915 7.10059 11.859 1.43659 
7.24848 9.73016 3.44717 13.0226 9.77236 1.32708 10.9525 9.91465 3.41779 
10.7292 11.8047 1.3449 12.7906 11.8419 3.29714 10.8001 9.81695 -0.7015 
16.4199 9.86208 1.31532 16.6092 7.74347 -0.716598 14.8056 9.59231 -0.721098 
22.0696 7.71497 1.42934 20.2734 9.81265 1.26276 22.1575 11.7388 1.28237 
22.0734 9.80237 3.44035 18.406 9.69979 -0.666777 18.3217 11.8495 1.50296 
18.482 9.78496 3.44728 25.7733 7.68699 1.2389 23.9556 9.68865 1.35837 
25.8275 9.80692 3.42385 25.9351 9.74309 -0.617754 29.6964 7.7064 1.42901 
27.7969 9.71347 1.4377 29.6391 11.7628 1.4165 27.6223 7.72649 3.32516 
33.3912 7.66888 1.42899 31.6207 9.74094 1.39059 38.9551 9.82134 1.25525 
35.1586 9.73566 1.25923 37.1087 9.72929 3.36583 37.1289 11.7671 1.29255 
5.11922 13.9811 1.35673 5.28796 11.9643 -0.699603 3.2774 14.2179 -0.598424 
9.03299 13.9641 1.31806 6.98411 16.0311 1.32378 7.00775 14.0157 -0.652693 
12.7537 13.928 1.22312 10.9943 16.0074 1.33592 12.7126 16.0384 3.34151 
14.7707 11.9268 1.36596 16.4352 13.945 1.51597 14.6132 14.003 -0.668876 
14.6918 16.0599 1.29617 14.5511 13.9338 3.41606 20.3389 13.7098 1.3814 
18.6144 15.8213 1.22977 18.4299 14.0925 3.44603 18.3973 13.9646 -0.651183 
26.0153 11.9172 1.32385 24.0323 13.9636 1.51071 25.9089 16.0231 1.38666 
24.0671 16.0295 -0.69003 26.0024 14.0256 3.37592 24.1192 11.9522 -0.617055 
27.8554 14.0897 1.42606 33.4288 11.8848 1.53773 31.5646 11.9062 3.41297 
31.3748 13.9325 1.35835 33.5701 16.0085 1.50372 31.5985 16.0354 3.36863 
33.4358 13.998 -0.700684 35.2702 11.9657 -0.643223 38.9722 13.962 1.41528 
35.413 14.034 1.45287 3.48426 16.1501 1.46657 5.20023 18.1214 1.41259 
1.68615 18.1775 1.33414 3.4669 18.2124 -0.716655 9.03223 18.0577 1.30656 
7.21265 20.1997 1.39442 9.01193 20.0004 -0.67676 7.22097 18.0559 3.32623 
12.8136 18.2266 1.15435 10.9345 18.0683 -0.696614 12.8449 20.2219 -0.604399 
16.5201 17.823 1.24948 14.7036 18.1767 3.34977 22.1677 16.1825 1.27553 
20.3736 18.2379 1.16004 18.313 20.157 1.24827 22.2333 20.1475 1.09796 
20.3091 20.2305 3.26636 18.4513 18.1655 3.27539 22.2349 18.4125 3.3409 
18.4282 18.0029 -0.674512 24.0069 18.212 1.25728 25.8724 18.1244 -0.714993 
23.8597 16.1707 3.40512 25.7365 18.2315 3.47151 29.6646 16.167 1.26785 
27.761 18.4282 1.60473 29.4724 18.3092 -0.73088 27.8493 16.1273 3.3414 
31.6903 18.1774 1.38297 33.3399 18.21 -0.698416 31.6566 16.1616 -0.463947 
37.1804 16.3102 1.24566 39.0511 16.2345 3.30182 35.1915 18.1569 1.39398 
37.2317 18.1119 3.43366 37.2899 20.2254 1.36466 37.2734 18.2471 -0.67154 
3.38304 20.2808 1.35673 5.23853 22.4335 1.3259 1.47554 22.3309 1.38402 
5.19537 24.3975 -0.656374 5.20784 20.3117 -0.72939 1.52123 20.3897 -0.646761 
3.45747 22.3083 -0.696715 8.99692 22.1489 1.5046 7.18998 24.415 1.4474 
9.10866 24.3126 -0.659794 6.99727 22.1535 -0.56018 10.9028 20.3399 1.39792 
12.855 20.2666 3.25186 12.6685 22.3105 1.27916 10.8216 24.4076 1.35711 
12.7048 24.2843 3.39456 12.7308 24.3636 -0.698602 14.7419 20.2646 1.353 
16.5669 22.4401 1.1268 14.6613 24.4484 1.51602 16.7121 24.3568 3.40954 
20.3568 22.3728 1.36802 22.102 22.3773 3.42319 18.4951 24.3409 1.35938 
21.9992 22.4989 -0.689477 25.813 20.3955 1.4197 24.0134 22.5012 1.50653 
24.1656 20.3686 -0.676151 25.6183 22.4899 -0.645341 29.8873 20.2462 1.35427 
27.6045 20.3387 -0.626908 27.6799 22.3273 1.35978 27.7712 24.379 -0.6808 
29.5925 22.4179 3.40103 29.5444 22.2922 -0.628999 33.5921 20.2617 1.37523 
31.6462 22.39 1.4868 33.407 24.4305 1.43164 31.7167 20.3168 3.32011 
33.3362 22.4271 -0.704009 35.3065 20.3339 -0.688819 35.3892 22.4746 1.40546 
37.0423 22.6501 3.42086 37.3339 24.3488 1.44777 37.2899 22.4084 -0.642475 
3.33231 24.5787 1.6003 5.3763 26.4632 1.45748 3.42433 26.5458 -0.566032 
1.67623 24.5569 -0.638519 5.30537 28.6119 -0.635776 5.20785 28.6412 3.29699 
8.96798 26.5366 1.27751 7.08136 28.498 1.54587 9.17936 28.453 3.22773 
10.9111 26.4221 -0.559744 12.6903 26.5326 1.46685 12.9212 28.5786 -0.69823 
16.6066 26.4013 1.24215 16.3956 28.449 3.31918 14.6649 28.5002 1.22451 
22.1443 24.5503 1.33836 20.2183 26.5379 1.1231 18.4391 26.4859 3.44532 
25.8691 24.4491 1.42862 23.8892 26.6656 1.51077 25.8897 26.5808 -0.716374 
24.0301 24.6042 -0.632641 29.5225 24.5362 1.42017 27.683 26.5927 1.34685 
29.7508 28.5447 1.13431 29.676 26.6808 3.40172 31.3437 24.5208 -0.716267 
31.5875 26.4713 1.4347 33.5133 26.2732 -0.625644 33.595 28.6051 1.41941 
31.7573 28.5345 -0.726542 31.5494 28.5349 3.4105 38.9844 26.6515 1.43817 
35.5552 26.4132 1.39579 37.2481 26.632 -0.647087 35.4719 24.5547 -0.504665 
3.46928 28.6482 1.38886 5.2269 30.7699 1.33409 3.29428 32.7073 1.46149 
3.44462 30.7033 -0.617007 1.46446 30.6762 1.51977 1.4512 28.7219 -0.646736 
9.10357 28.7759 -0.563172 8.92736 30.655 1.54997 7.11015 32.8168 1.40026 
7.10972 30.7044 -0.676275 11.0913 28.8675 1.40904 12.9788 30.8375 1.21702 
11.0086 30.9282 3.31678 10.7442 32.8191 1.37436 12.731 28.7028 3.45529 
16.2895 30.8385 1.30676 18.1521 30.5837 3.43416 16.6242 32.7942 3.33381 
18.2972 28.6922 1.37263 20.2014 28.8125 3.35851 22.0403 28.7556 1.34458 
20.2772 30.7924 1.41964 18.3237 32.6519 1.30045 20.1075 32.7682 3.41682 
25.7999 28.6798 1.40109 23.8507 30.7112 1.32733 25.9415 30.9022 -0.68032 
26.0018 32.69 1.41162 23.9923 32.5984 3.43318 27.8699 30.5717 1.4557 
29.8528 30.7596 3.46862 29.6604 32.7947 1.37811 27.906 32.7592 -0.710584 
27.7805 28.7935 -0.72921 31.6822 30.697 1.37947 33.4255 32.7451 1.38419 
31.5677 32.8408 3.36858 37.0765 28.8598 1.37085 35.2881 30.8876 1.53992 
35.3204 32.8299 -0.707815 38.9569 32.812 -0.548134 5.20052 34.9789 1.5572 
3.12887 34.9787 -0.594941 3.34241 36.8397 1.55616 1.4787 34.8614 1.55074 
5.16331 32.8737 -0.704919 5.12024 36.9753 -0.672785 9.03109 34.9052 1.49344 
8.88134 36.9066 -0.598487 9.00325 32.9472 -0.701593 6.97791 34.9429 -0.633841 
12.6158 35.0606 1.35887 12.6694 32.9084 3.31356 14.5544 33.0334 1.24184 
16.4244 34.9354 1.50755 16.5306 32.9215 -0.695964 14.4888 35.0917 3.4764 
14.3997 35.1097 -0.731697 21.9068 32.8757 1.22107 20.2187 34.9226 1.34379 
18.4186 34.8462 3.44764 18.3457 36.8719 1.38713 20.297 37.0219 3.43643 
20.262 36.9218 -0.713539 24.039 34.7853 1.40911 25.7862 36.8331 1.40646 
26.0382 34.8694 3.36704 24.0675 36.9463 3.35828 27.7918 34.9036 1.33048 
29.6867 35.0158 -0.579481 27.8137 37.0015 -0.577787 27.9101 32.8624 3.37637 
29.8641 34.8832 3.4423 31.4932 34.9479 1.42273 33.5837 34.994 -0.485293 
37.0593 32.9669 1.38317 35.2045 34.9968 1.60391 37.0199 35.0594 -0.613264 
5.14111 39.1388 1.42418 1.6464 38.9756 1.55595 1.4967 37.0646 -0.577793 
1.56223 41.1821 -0.601763 3.20604 39.0662 -0.676725 8.90126 41.1347 3.36047 
7.05737 37.0595 1.47615 8.99398 39.1352 1.54377 10.8575 37.056 1.41102 
12.7823 39.1893 1.27633 10.957 39.1312 3.44685 10.8772 39.2112 -0.563577 
12.5664 37.0916 -0.720917 16.3439 37.0272 3.41918 14.4815 37.2405 1.28239 
16.3558 39.2564 1.31706 14.5805 39.211 -0.686706 22.0619 41.0345 1.29099 
18.4925 41.0672 1.2728 22.2253 37.0322 1.37011 20.2331 38.9307 1.38667 
20.276 41.1437 3.40208 24.0366 41.0616 3.34693 24.2475 39.0821 1.33488 
29.4927 41.1111 1.51797 29.6129 37.0881 1.51639 27.6564 39.0956 1.33806 
29.6823 38.9973 -0.686565 27.8565 37.0662 3.41232 29.5869 39.1279 3.42387 
31.4844 37.0307 -0.571813 33.3871 37.0395 1.53368 31.4441 39.1105 1.38275 
33.3099 39.1546 -0.660686 31.442 41.1208 3.45942 31.4484 41.1742 -0.725104 
37.1004 37.0766 1.37657 37.2398 41.1188 1.33255 35.2625 39.1291 1.34777 
37.2965 39.1153 3.3472 37.2837 39.13 -0.675858 35.2135 37.2027 -0.587099 
3.35512 1.47126 3.50054 5.28346 1.49116 5.67394 3.3186 1.50412 7.64383 
3.41382 -0.409678 5.61401 1.49612 1.57325 5.70585 5.12483 -0.633012 3.51294 
9.01263 3.34463 3.5096 7.01302 1.29377 3.47804 8.93368 1.22012 5.62607 
7.04522 -0.668157 5.71287 10.818 1.30543 3.45151 12.8581 -0.678507 3.54804 
12.8557 1.50597 5.4678 10.8402 1.4593 7.55153 12.9146 -0.638685 7.54947 
[...]
POINT_DATA 4000
FIELD FieldData 6
id 1 4000 int
8 2 3 401 12 6 47 7 49 
16 51 11 13 20 457 417 55 15 
414 57 24 59 63 422 22 28 426 
27 465 32 30 71 36 75 35 473 
4 40 438 43 48 485 442 45 42 
52 446 87 46 89 56 91 93 60 
95 64 99 61 62 101 67 68 466 
72 76 474 113 44 79 80 119 78 
478 117 81 83 88 525 123 481 85 
82 92 127 486 96 490 131 533 90 
100 97 94 103 104 143 502 98 139 
498 107 108 506 106 111 112 151 509 
115 116 84 120 518 159 128 125 122 
132 167 126 136 171 573 135 140 134 
175 534 144 179 538 138 147 148 187 
185 546 145 152 155 553 156 195 593 
154 157 124 160 163 168 164 162 172 
207 209 566 176 170 213 180 574 183 
184 219 223 621 578 582 178 188 186 
585 586 191 192 190 589 196 194 193 
199 561 200 598 239 198 203 208 204 
245 205 201 202 212 247 249 206 211 
613 216 251 653 253 215 220 255 657 
224 622 259 222 227 228 225 226 231 
229 232 269 630 230 235 236 275 633 
234 237 240 638 279 238 243 248 242 
241 285 685 252 287 689 250 256 293 
260 697 295 263 264 658 267 268 266 
265 271 272 311 670 273 276 274 315 
313 713 244 280 278 277 283 288 323 
282 284 281 289 292 327 286 291 296 
690 331 693 300 698 737 299 701 303 
304 339 741 307 308 306 347 745 312 
710 351 349 309 316 355 753 319 320 
357 321 328 322 363 324 325 365 332 
369 329 326 336 733 335 340 337 734 
334 343 344 738 379 781 381 348 387 
746 785 352 350 389 749 750 356 354 
359 360 358 368 364 361 1 362 409 
367 372 371 376 770 370 373 777 375 
380 374 23 19 383 384 421 425 388 
31 391 392 390 789 790 393 395 396 
394 433 33 399 39 400 798 398 397 
402 408 802 403 404 405 449 406 412 
407 410 413 416 810 813 420 418 461 
424 459 822 861 428 463 427 430 432 
469 431 429 830 829 434 436 435 475 
834 440 479 439 441 445 443 845 448 
842 447 452 453 450 451 456 491 850 
454 497 455 460 854 897 495 857 458 
462 464 503 501 499 862 467 468 865 
866 470 471 869 472 870 513 476 515 
873 517 444 477 480 482 521 483 488 
484 882 925 489 889 487 492 527 493 
496 531 933 494 537 500 535 541 504 
902 505 507 508 945 547 511 510 512 
910 949 514 516 555 914 557 519 917 
520 559 957 522 523 528 524 961 565 
526 529 532 569 926 530 536 571 930 
577 540 575 937 934 542 539 543 544 
942 938 545 548 946 549 551 550 552 
950 554 556 954 558 560 599 563 562 
605 568 962 609 567 572 969 966 1009 
570 576 1013 970 611 580 615 581 579 
583 584 978 982 619 587 985 588 986 
591 989 590 592 594 595 596 994 597 
564 600 998 639 997 603 602 645 608 
604 607 606 612 647 649 1006 610 616 
1010 651 617 614 620 1014 1017 618 623 
624 625 626 627 628 631 629 632 671 
634 635 636 675 1033 637 601 640 642 
641 643 648 1045 681 644 646 652 687 
1049 650 656 1093 655 654 660 1054 1097 
661 662 659 663 664 666 665 667 668 
707 1066 669 709 672 711 674 673 676 
678 677 679 680 1078 717 1077 683 682 
688 723 1085 686 692 727 1086 691 696 
1133 694 695 700 1094 699 703 702 704 
739 743 1141 705 706 708 1105 1145 712 
751 714 715 716 755 719 684 718 720 
759 765 721 725 722 728 724 1122 729 
726 732 767 1126 730 731 736 1130 735 
740 775 742 744 1142 783 779 747 748 
1146 752 791 1189 754 756 795 1154 757 
758 760 763 762 768 761 764 769 766 
772 1166 1169 773 771 411 776 1170 774 
415 780 1174 778 419 782 423 784 1182 
787 786 788 792 794 793 796 833 797 
799 437 800 808 1202 803 1241 805 1201 
806 812 807 847 1209 1249 816 811 853 
1210 1213 814 817 820 815 855 1217 818 
824 819 863 1218 1222 826 828 867 1265 
1226 1225 832 1230 871 1269 836 1273 1233 
838 837 877 804 840 839 843 844 848 
881 846 849 852 887 893 851 856 1293 
891 860 895 1254 858 859 864 1258 903 
1261 868 1266 905 907 872 1270 913 875 
874 876 915 1313 841 878 879 880 919 
885 883 1281 888 884 1282 886 892 1286 
929 927 890 896 894 900 1294 901 898 
899 904 1302 939 906 908 1306 909 911 
1309 912 1310 1349 916 955 1353 1314 918 
920 959 1321 922 923 928 1325 1322 932 
1329 973 931 936 971 1337 935 940 1334 
981 941 943 944 983 1342 947 948 951 
952 1350 953 956 1354 921 958 924 960 
1358 963 965 968 964 1003 967 972 1409 
1007 1369 1366 976 1011 1370 1413 977 974 
975 980 1374 1015 1377 979 984 1378 1023 
1021 1019 987 988 990 991 992 1390 993 
995 996 1035 1394 1037 999 1000 1039 1001 
1397 1005 1002 1008 1004 1445 1441 1401 1402 
1012 1406 1047 1449 1053 1016 1051 1410 1020 
1057 1414 1417 1022 1018 1024 1063 1422 1418 
1026 1025 1027 1028 1029 1030 1069 1031 1032 
1071 1034 1073 1036 1075 1038 1040 1041 1043 
1042 1048 1046 1052 1446 1050 1056 1453 1058 
1055 1060 1061 1062 1059 1064 1103 1461 1501 
1065 1067 1068 1107 1465 1070 1109 1072 1111 
1074 1076 1513 1079 1044 1080 1478 1083 1082 
1081 1088 1123 1482 1089 1087 1092 1090 1091 
1096 1095 1100 1135 1494 1099 1101 1098 1102 
1104 1498 1502 1106 1505 1108 1506 1545 1147 
1509 1110 1112 1549 1510 1113 1115 1114 1116 
1514 1553 1117 1118 1119 1084 1120 1125 1124 
1128 1165 1521 1565 1129 1529 1127 1132 1526 
1533 1131 1136 1530 1573 1137 1134 1140 1177 
1534 1139 1138 1143 1144 1181 1183 1538 1542 
1148 1585 1185 1187 1150 1149 1151 1152 1191 
1153 1193 1155 1156 1195 1159 1157 1121 1158 
1160 1199 1161 1162 801 1163 1168 1164 1561 
1562 809 1167 1172 1569 1173 1171 1176 1570 
1175 1180 1577 1574 821 1179 823 1178 1184 
1582 1578 825 1186 827 1188 1586 1190 831 
1192 1229 1194 835 1196 1197 1198 1200 1205 
1208 1204 1245 1243 1203 1206 1212 1606 1247 
1253 1216 1653 1613 1610 1214 1220 1614 1257 
1255 1215 1224 1223 1622 1228 1227 1267 1626 
1665 1232 1234 1236 1275 1633 1238 1240 1279 
1242 1248 1642 1285 1246 1252 1689 1250 1251 
1256 1650 1260 1654 1259 1263 1262 1264 1303 
1661 1301 1299 1701 1305 1268 1666 1307 1271 
1272 1670 1311 1669 1274 1276 1713 1673 1674 
1277 1244 1278 1280 1319 1677 1283 1681 1288 
1685 1287 1289 1292 1686 1290 1291 1296 1693 
1733 1690 1295 1297 1300 1298 1304 1343 1741 
1345 1705 1308 1347 1312 1351 1710 1315 1316 
1714 1753 1355 1318 1284 1317 1320 1359 1323 
1328 1365 1725 1722 1765 1327 1326 1332 1367 
1330 1373 1333 1331 1336 1335 1340 1341 1338 
1339 1344 1781 1383 1738 1346 1745 1348 1746 
1385 1387 1352 1750 1391 1356 1395 1754 1357 
1324 1360 1757 1797 1362 1363 1368 1405 1805 
1762 1372 1407 1769 1766 1371 1376 1411 1770 
1773 1375 1380 1379 1382 1381 1384 1419 1423 
1386 1388 1427 1389 1392 1790 1793 1393 1396 
1435 1361 1399 1364 1398 1400 1439 1761 1798 
1403 1408 1845 1802 1412 1806 1447 1849 1416 
1451 1415 1420 1457 1814 1421 1424 1463 1459 
1822 1425 1426 1428 1826 1429 1430 1431 1432 
1471 1830 1433 1434 1436 1473 1873 1438 1404 
1477 1437 1440 1442 1443 1485 1448 1444 1842 
1452 1487 1450 1456 1491 1853 1850 1497 1454 
1455 1460 1462 1458 1464 1466 1467 1468 1905 
1469 1470 1472 1511 1474 1475 1476 1515 1479 
1480 1519 1481 1878 1483 1488 1484 1486 1489 
1492 1889 1490 1493 1496 1893 1495 1500 1541 
1499 1503 1504 1543 1898 1507 1508 1547 1512 
1949 1551 1910 1516 1555 1517 1518 1520 1557 
1559 1918 1525 1522 1523 1528 1922 1527 1532 
1929 1531 1933 1536 1930 1535 1537 1540 1581 
1539 1544 1942 1583 1938 1546 1548 1946 1587 
1550 1589 1552 1591 1950 1989 1554 1556 1593 
1953 1524 1558 1560 1599 1563 1568 1564 1566 
1207 1567 1572 1966 1609 1969 1211 1571 1576 
1973 1970 1575 1580 1974 1617 1579 1221 1219 
1981 1584 1982 1621 1625 1588 1986 1231 1590 
1592 1629 1235 1595 1594 1596 1994 1993 1598 
1237 1239 1597 1600 1602 1608 1641 1645 1643 
2002 1649 1612 2006 1607 2009 1616 2010 2053 
1611 1620 1655 1615 2017 2014 1618 1624 2022 
1659 1619 2061 2018 2021 1628 1627 2026 1630 
1632 2030 1634 1636 2034 1638 1601 1637 1604 
1640 2038 2041 1648 1644 2042 1646 1647 1652 
2049 1651 1656 2050 2093 1657 1660 2097 1663 
1658 1662 1664 1699 1703 1667 1668 2066 1707 
1709 1671 1672 2070 1711 2109 1675 1676 1715 
2074 1678 1679 1680 1719 2078 1682 1683 1688 
1684 1687 1692 1729 2086 1691 1696 2090 2133 
1697 1694 1737 1695 1700 1735 1702 1698 1704 
1743 2098 2141 1706 1708 2106 2105 2145 1712 
1751 1716 1755 1717 1718 1720 1759 1723 1728 
2122 1726 1727 1732 2129 2126 1730 1731 1736 
1771 1734 1740 2134 2137 1739 1742 1744 2138 
1783 2142 1747 1748 2146 1785 2185 1749 1789 
1752 1791 2150 1756 1795 1721 1758 1724 1760 
1799 2197 2165 1763 1768 2162 1803 1767 1772 
2209 1809 2169 2166 2173 1776 2170 1777 2177 
1774 1775 1780 2174 1778 1782 1779 1821 1784 
1819 2178 2181 1786 1787 1788 2186 1829 2189 
1792 2190 1794 1833 1796 1835 2194 1764 1800 
1837 1839 2201 1801 1808 2245 1804 2202 1807 
1812 1847 2206 2249 1813 1810 1811 1816 1817 
1815 1820 1861 1823 1818 1824 1825 1827 1828 
1865 1831 1832 1869 1871 1834 1836 1875 1838 
1840 2238 1881 1843 1848 1883 1844 1885 2281 
1846 1852 1887 2246 1851 1856 2253 1857 1854 
1855 1860 1862 1863 1858 1859 1864 1901 1866 
1867 1868 1870 1872 1911 2270 1913 1874 1876 
2313 2273 1877 1841 1879 1880 1882 1888 2282 
1884 1921 1886 1892 1891 1890 1896 1897 1895 
1894 1900 1935 2294 1902 1899 1903 1904 1941 
1943 2298 1906 1907 1908 1947 1909 1912 2349 
2310 1914 1915 1916 2353 1917 1957 1919 1920 
2318 1925 1923 1928 1963 2322 1926 1927 1932 
2326 1931 1936 2330 1937 1934 1977 1940 1975 
2334 1939 1944 2338 2341 2342 1945 1948 2345 
2346 1951 1952 1991 2389 1954 1955 1956 1995 
1959 1924 1958 1960 1997 1965 1605 2005 1961 
1603 1962 1968 2362 1964 1967 1972 2366 1971 
1976 2370 1980 2377 2374 1978 1979 1983 1984 
2382 2381 2378 1985 2385 1623 1987 1988 2025 
2386 1631 1990 1992 2029 2390 1635 1996 1639 
1998 1999 2000 2001 2004 2008 2003 2012 2047 
2007 2409 2013 2016 2410 2011 2413 2020 2057 
2019 2023 2024 2063 2418 2422 2421 2028 2065 
2067 2425 2032 2071 2429 2430 2031 2033 2036 
2073 2075 2035 2040 2037 2079 2039 2045 2445 
2043 2048 2044 2083 2481 2046 2052 2051 2056 
2450 2091 2055 2054 2060 2457 2059 2058 2062 
2064 2101 2461 2458 2068 2462 2505 2069 2072 
2470 2111 2113 2076 2115 2513 2474 2077 2117 
2080 2119 2478 2085 2082 2088 2084 2525 2485 
2089 2087 2092 2127 2096 2131 2493 2094 2095 
2100 2494 2497 2102 2099 2103 2501 2104 2498 
2139 2502 2107 2108 2506 2110 2509 2112 2151 
2149 2114 2116 2155 2081 2118 2121 2120 2157 
2518 2123 2125 2128 2522 2561 2163 2565 2132 
2526 2130 2136 2530 2135 2140 2175 2537 2143 
2144 2179 2538 2147 2148 2546 2187 2152 2191 
2550 2549 2153 2154 2156 2158 2159 2124 2160 
2199 2161 2168 2164 2605 2167 2172 2207 2566 
2609 2171 2573 2176 2570 2577 2180 2574 2221 
2182 2183 2184 2621 2219 2581 2578 2225 2188 
2227 2229 2192 2231 2193 2195 2196 2233 2235 
2633 2198 2200 2239 2237 2637 2601 2205 2203 
2208 2243 2602 2212 2247 2210 2213 2211 2216 
2251 2217 2257 2215 2214 2220 2255 2218 2222 
2223 2224 2622 2226 2228 2267 2626 2265 2230 
2232 2629 2269 2271 2234 2236 2241 2204 2240 
2277 2677 2242 2248 2244 2252 2287 2646 2250 
2293 2256 2291 2653 2254 2260 2697 2261 2258 
2301 2259 2264 2263 2299 2658 2662 2262 2266 
2268 2272 2670 2311 2274 2275 2276 2713 2315 
2674 2279 2278 2280 2678 2317 2319 2283 2285 
2288 2323 2682 2329 2286 2289 2292 2689 2290 
2296 2331 2297 2295 2300 2335 2694 2737 2303 
2302 2304 2702 2698 2741 2306 2305 2308 2307 
2347 2745 2706 2309 2312 2710 2351 2314 2316 
2355 2753 2284 2357 2320 2359 2721 2325 2321 
2365 2328 2324 2327 2332 2333 2336 2371 2337 
2340 2375 2777 2343 2339 2344 2738 2742 2383 
2348 2350 2352 2391 2750 2354 2356 2754 2395 
2358 2360 2397 2399 2363 2368 2765 2367 2369 
2372 2373 2376 2773 2770 2015 2380 2774 2379 
2384 2781 2778 2782 2387 2027 2388 2785 2786 
2789 2392 2790 2393 2793 2394 2396 2433 2364 
2361 2398 2400 2402 2405 2408 2443 2404 2403 
2406 2412 2416 2411 2813 2451 2810 2414 2420 
2417 2814 2817 2424 2818 2423 2861 2426 2428 
2467 2826 2865 2427 2469 2432 2830 2434 2473 
2436 2475 2873 2833 2438 2401 2440 2838 2442 
2448 2842 2441 2444 2449 2447 2446 2452 2453 
2456 2454 2455 2460 2495 2857 2459 2463 2464 
2862 2465 2466 2468 2866 2905 2507 2471 2472 
2511 2870 2476 2515 2477 2479 2480 2517 2519 
2881 2482 2483 2488 2882 2489 2529 2487 2486 
2492 2527 2490 2491 2496 2531 2890 2500 2897 
2541 2499 2503 2504 2539 2543 2941 2901 2902 
2898 2545 2508 2906 2945 2547 2510 2909 2512 
2551 2514 2913 2516 2914 2555 2953 2557 2484 
2520 2521 2523 2528 2524 2925 2922 2569 2532 
2567 2926 2533 2536 2933 2535 2534 2540 2575 
2934 2542 2544 2579 2981 2942 2585 2548 2587 
2589 2552 2591 2553 2554 2556 2595 2558 2559 
2560 2597 2599 2563 2562 2568 2564 2603 2965 
2962 2572 2607 2966 2571 2576 2613 3013 2611 
2617 2580 2615 2974 2582 2583 2584 2978 2982 
2619 3021 2623 2586 2588 2985 2627 2590 2592 
2631 3029 2593 2594 2596 2635 2598 2600 2639 
3001 2608 2643 2606 2649 2612 2647 3049 3006 
2610 2616 2651 3010 2614 2657 2620 2655 2618 
2661 2624 3022 2659 3018 3061 2625 2665 2628 
3026 2667 2630 2669 2632 2671 2673 2634 2636 
3034 3033 3073 2604 2638 2640 2641 2645 2642 
2648 2685 2683 2681 2652 2650 2656 2691 3050 
3053 2654 2660 2695 3054 3097 2701 2663 2664 
2699 3062 3101 2666 2668 3065 3066 2705 2672 
3070 2675 2676 2715 3074 2717 2679 2644 2680 
2719 2688 2684 2725 2723 3121 2686 2687 2692 
2690 3093 2693 2696 2733 2731 2700 3094 3137 
2703 2704 2743 3098 3102 2707 2708 3145 2709 
2711 2712 2714 2716 2755 2718 2720 2759 2722 
2728 2724 2729 2726 2727 2732 3126 2767 3169 
2730 2736 3173 2771 2734 2735 2740 2739 2744 
2779 3138 2783 2747 2746 2748 3146 2749 2751 
2752 3149 3150 3189 3153 2756 3154 2757 2758 
2760 2797 3158 2763 2762 2768 2764 2407 2769 
2766 2772 3166 2809 2776 3170 2415 2775 2780 
3174 2419 2784 3182 3178 3181 3185 2787 2788 
3186 2829 2791 2431 2792 3190 2794 2435 2795 
2796 2437 2798 2439 2761 2799 2800 2802 2801 
2808 2803 2841 3202 3245 2806 2849 2812 2847 
2816 3210 2851 2820 2815 3214 2822 2821 2824 
3221 2819 2823 3222 3218 2825 2828 3226 3265 
3225 2867 2832 3269 2869 2871 2834 2836 2875 
2835 2804 2840 2837 3237 2843 2845 2848 2844 
2846 2852 3249 2853 2850 2856 2891 3250 3293 
2855 2854 2860 2858 2859 2863 2864 2868 2907 
3266 2872 3270 3309 2911 2874 2876 2915 3274 
3313 2877 2879 2878 2880 2917 2885 2921 3285 
2883 2888 2889 2886 2887 2892 3286 3329 2893 
2896 2894 2895 2900 3297 3298 3301 2903 2899 
2904 3302 2939 2943 3341 2908 2947 3306 2910 
2949 2912 2916 3353 2955 3314 2918 2919 3317 
2884 2920 2957 3357 2923 2928 2929 2927 2932 
2969 3326 3369 2931 2930 2936 3330 2977 2937 
2935 2940 3337 2975 3377 2938 2944 3338 2979 
2946 2948 2987 3346 2950 2989 2951 2952 2991 
2993 2954 2956 2995 2959 2924 2958 2960 2961 
2997 2963 2968 2964 3003 3365 3362 3009 2967 
2972 3007 2973 2971 2970 2976 3011 3017 2980 
2983 2984 3381 3019 3023 3382 2986 3025 2988 
3027 3425 2990 3389 2992 3031 3390 3429 2994 
2996 2999 2998 3000 3039 3045 3005 3002 3008 
3041 3004 3043 3012 3016 3051 3410 3014 3015 
3020 3414 3055 3417 3421 3024 3422 3418 3063 
3028 3426 3030 3032 3071 3430 3035 3036 3434 
3037 3077 3038 3040 3079 3085 3042 3048 3083 
3449 3046 3047 3052 3089 3056 3057 3060 3454 
3059 3058 3064 3099 3458 3462 3461 3067 3068 
3466 3105 3107 3465 3069 3469 3072 3470 3109 
3075 3076 3115 3078 3044 3080 3081 3119 3481 
3082 3088 3123 3521 3125 3525 3086 3087 3092 
3127 3090 3091 3096 3490 3131 3533 3493 3095 
3100 3497 3103 3104 3139 3141 3501 3498 3502 
3106 3108 3147 3110 3111 3112 3510 3549 3113 
3114 3116 3155 3117 3118 3084 3120 3157 3161 
3122 3128 3163 3522 3165 3561 3129 3132 3130 
3133 3136 3573 3530 3134 3135 3177 3140 3534 
3142 3143 3144 3179 3542 3581 3148 3187 3585 
3546 3151 3152 3193 3156 3554 3159 3124 3160 
3558 3199 2805 3565 3162 3168 3167 2807 3172 
3171 2811 3176 3175 3180 3574 3217 3183 3184 
3578 3582 2827 3188 3586 3191 2831 3192 3229 
3195 3194 3196 3593 3197 3201 2839 3164 3198 
3200 3598 3205 3208 3204 3209 3206 3212 3609 
3649 3216 3251 3253 3653 3610 3613 3213 3211 
3220 3614 3657 3215 3617 3261 3224 3263 3223 
3618 3622 3228 3267 3227 3665 3230 3232 3271 
3231 3234 3273 3236 3634 3673 3633 3238 3277 
3240 3279 3638 3243 3242 3248 3685 3283 3246 
3247 3252 3689 3256 3291 3693 3254 3257 3255 
3260 3697 3295 3258 3262 3259 3264 3658 3662 
3299 3268 3305 3272 3670 3709 3311 3275 3276 
3315 3713 3674 3278 3241 3244 3280 3677 3282 
3281 3288 3284 3289 3287 3292 3327 3290 3296 
3331 3690 3733 3294 3300 3335 3303 3304 3343 
3339 3698 3345 3307 3308 3347 3706 3310 3312 
3351 3316 3355 3753 3714 3319 3321 3318 3320 
3359 3717 3325 3323 3322 3328 3363 3332 3367 
3726 3769 3333 3336 3730 3334 3340 3375 3734 
3777 3342 3344 3742 3781 3383 3738 3379 3741 
3348 3746 3349 3350 3352 3750 3393 3354 3356 
3395 3754 3358 3324 3360 3397 3761 3368 3805 
3361 3364 3366 3372 3766 3413 3373 3371 3370 
3376 3773 3813 3770 3374 3380 3378 3384 3778 
3385 3386 3387 3388 3786 3427 3391 3789 3392 
3790 3433 3394 3396 3399 3401 3398 3400 3403 
3405 3402 3408 3443 3445 3802 3409 3407 3406 
3412 3849 3453 3411 3416 3451 3810 3817 3415 
3420 3814 3419 3423 3424 3459 3818 3822 3428 
3431 3432 3830 3471 3829 3869 3435 3436 3873 
3833 3438 3441 3437 3404 3439 3440 3442 3448 
3485 3881 3446 3447 3452 3489 3846 3450 3456 
3491 3457 3455 3857 3460 3897 3861 3463 3464 
3862 3503 3858 3467 3468 3507 3866 3509 3472 
3473 3474 3475 3476 3477 3478 3479 3444 3480 
3517 3878 3917 3483 3482 3488 3523 3885 3529 
3487 3486 3492 3886 3496 3494 3495 3500 3937 
3894 3499 3504 3902 3901 3505 3506 3508 3547 
3905 3511 3512 3949 3910 3514 3553 3513 3515 
3516 3555 3519 3484 3518 3520 3559 3528 3524 
3965 3526 3527 3532 3567 3926 3531 3933 3536 
3537 3535 3540 3934 3541 3538 3539 3543 3544 
3579 3583 3545 3548 3946 3945 3550 3551 3552 
3950 3556 3954 3557 3957 3560 3599 3562 3203 
3563 3568 3564 3962 3569 3566 3207 3572 3570 
3571 3576 3970 3577 3575 3580 3219 3584 3978 
3981 3621 3587 3588 3625 3589 3590 3591 3592 
3990 3233 3235 3595 3594 3596 3597 3239 3637 
3600 5 3602 3608 3603 3643 3606 3612 3647 
3607 10 3616 3651 14 3620 3655 18 3624 
3659 3619 3623 26 65 3626 3628 3627 3630 
3669 69 3632 3671 34 73 3636 3675 3604 
38 3640 3679 3645 3641 3642 3648 3683 3646 
3652 3687 3650 53 50 3656 3654 54 3660 
3695 3661 58 3663 3664 3699 3666 3705 3667 
66 3668 3707 70 3672 3711 74 3676 3678 
41 77 3644 3680 3682 3688 121 3684 3725 
3723 3686 3729 86 3692 3691 3696 133 3731 
3737 3694 3700 3735 3701 3702 102 3703 141 
3704 3739 105 3708 3747 110 3710 3749 109 
3712 3715 114 3716 3755 118 3718 3681 3719 
3720 3757 3721 3722 3728 3724 3765 129 3727 
3732 130 3736 137 177 3740 3775 3743 142 
3744 3779 3745 3785 146 3748 3787 150 149 
3751 3752 153 3793 3756 158 197 3759 3758 
3760 3799 3797 165 161 3762 3763 3768 3764 
3803 169 3767 166 3772 3809 173 3771 3776 
3774 174 3780 3815 217 181 182 3782 3783 
3784 3823 3788 189 3791 3792 3794 3795 3796 
3835 3798 3800 3801 3808 3843 3806 3807 3812 
3847 210 3853 3811 3816 3851 257 214 3820 
3855 3821 221 218 3819 3824 261 3859 3825 
3827 3826 3828 3831 3832 233 3834 3836 3875 
3837 3804 3838 3839 3840 3842 3845 3848 3841 
3844 246 3889 3852 3887 3850 3856 3893 3854 
254 3860 3895 301 258 262 3863 3864 3899 
3865 3867 3868 270 3870 3871 3872 3911 3909 
3913 3874 3876 317 3877 3879 3880 3919 3882 
3883 3888 3925 3884 3929 3892 3927 290 3890 
3891 3896 3931 297 294 3900 3935 3939 302 
341 3898 298 3903 3904 345 3906 305 3907 
3908 310 3912 314 3915 3914 3916 3955 318 
3918 3920 3959 3922 3923 3928 3963 3969 3932 
3967 330 333 3930 3936 3971 377 3940 3975 
342 338 3938 3942 3943 3941 3944 3983 346 
3985 3947 3948 3987 385 3951 3952 353 3953 
3956 3993 3958 3961 3921 3924 3960 3605 3601 
3968 3964 366 9 3966 3972 3973 3611 3976 
3977 3974 17 3615 3980 21 382 3982 378 
3979 3984 25 386 3986 3988 29 3989 3991 
3631 3629 3992 3994 3995 3635 3996 37 3998 
3639 3999 3997 4000 
type 1 4000 int
1 1 1 1 1 1 1 1 1 
1 1 1 1 1 1 1 1 1 
1 1 1 1 1 1 1 1 1 
1 1 1 1 1 1 1 1 1 
1 1 1 1 1 1 1 1 1 
1 1 1 1 1 1 1 1 1 
1 1 1 1 1 1 1 1 1 
1 1 1 1 1 1 1 1 1 
1 1 1 1 1 1 1 1 1 
1 1 1 1 1 1 1 1 1 
1 1 1 1 1 1 1 1 1 
1 1 1 1 1 1 1 1 1 
1 1 1 1 1 1 1 1 1 
1 1 1 1 1 1 1 1 1 
1 1 1 1 1 1 1 1 1 
1 1 1 1 1 1 1 1 1 
1 1 1 1 1 1 1 1 1 
1 1 1 1 1 1 1 1 1 
1 1 1 1 1 1 1 1 1 
1 1 1 1 1 1 1 1 1 
1 1 1 1 1 1 1 1 1 
1 1 1 1 1 1 1 1 1 
1 1 1 1 1 1 1 1 1 
1 1 1 1 1 1 1 1 1 
1 1 1 1 1 1 1 1 1 
1 1 1 1 1 1 1 1 1 
1 1 1 1 1 1 1 1 1 
1 1 1 1 1 1 1 1 1 
1 1 1 1 1 1 1 1 1 
1 1 1 1 1 1 1 1 1 
1 1 1 1 1 1 1 1 1 