# vtk DataFile Version 4.0
Generated by LAMMPS
ASCII
DATASET POLYDATA
POINTS 4000 float
0.942612 1.49339 1.47123 4.90742 1.60543 1.63222 2.86855 3.57888 1.62591 
2.91061 1.63646 3.52584 4.99619 3.71129 3.79204 1.14119 3.52422 3.59535 
0.843332 3.54383 -0.634963 2.90144 1.49116 -0.437544 8.7018 1.62485 1.54228 
6.65687 3.58526 1.48165 6.72793 1.43374 3.57139 8.61604 3.57862 3.6208 
8.69927 -0.534382 3.44668 12.5503 1.6258 1.73873 10.4762 3.65172 1.42097 
10.6701 1.51263 3.80248 12.4753 3.59068 3.54961 10.5843 1.42766 -0.535809 
12.56 3.66277 -0.525903 16.2935 1.47569 1.40526 14.4677 3.54613 1.42029 
14.4225 1.425 3.68579 16.4026 3.90883 3.62689 16.2975 -0.449226 3.49748 
14.3933 -0.531192 1.54705 16.1903 -0.413955 -0.496755 14.4811 1.65981 -0.540624 
20.0947 1.63244 1.44473 18.1537 3.62378 1.45905 21.9999 3.61679 1.58719 
18.2123 1.72925 3.31428 22.0631 1.66126 3.48138 20.1717 3.69257 3.57406 
20.1219 -0.32086 3.71997 18.1018 -0.524209 1.5524 21.9972 -0.541711 1.49552 
22.1284 1.4817 -0.639784 18.3309 1.41165 -0.714065 23.9982 1.43441 1.42253 
25.8395 3.62999 1.50911 25.895 1.71024 3.47124 24.006 3.51681 3.58592 
24.0031 -0.518292 3.60687 25.9717 1.50796 -0.733605 28.0748 1.6631 1.60029 
29.9461 3.70116 1.5855 29.9316 1.60151 3.70976 27.8799 3.76242 3.44901 
29.7305 -0.543716 1.57931 29.9045 1.45986 -0.538221 28.0696 -0.431136 -0.668974 
31.7546 1.57802 1.45747 33.7825 3.6576 1.46414 33.7991 1.58249 3.5775 
31.8968 3.67202 3.65586 31.775 3.78185 -0.549147 33.6329 -0.532116 1.5508 
31.8975 -0.5556 -0.508511 39.5564 -0.469962 3.58741 35.6862 1.61546 1.62446 
37.6832 3.58065 1.62266 37.61 1.56523 3.60971 35.6261 3.54564 3.64604 
35.6602 -0.572268 3.50777 37.4086 1.51022 -0.523932 4.74783 5.69858 1.50569 
2.7888 7.71954 1.3156 2.92146 5.79065 3.63798 4.85536 7.55937 3.54127 
4.72903 7.62445 -0.63819 2.77086 5.47679 -0.505315 0.786276 5.7137 1.50571 
8.63612 5.77937 1.63219 6.79761 7.68369 1.53181 6.75531 5.71256 3.67759 
8.64028 7.7501 3.64122 6.62568 5.52484 -0.598566 8.55058 7.80295 -0.471767 
12.571 5.64906 1.39201 10.5316 7.8143 1.50074 10.6052 5.74281 3.62978 
12.4585 7.88481 3.76886 12.6138 7.71174 -0.550178 10.4267 5.5588 -0.535654 
16.5063 5.84069 1.5135 14.4439 7.80093 1.60549 14.4317 5.8585 3.52089 
16.3521 7.78929 3.58893 14.4815 5.62006 -0.502707 16.5223 7.86528 -0.454223 
20.1206 5.68263 1.37727 18.4485 7.8463 1.59956 22.1363 7.84539 1.62557 
18.4045 5.78578 3.75873 22.02 5.84321 3.63723 20.2154 7.83015 3.70256 
22.1522 5.5152 -0.570173 24.0848 5.72726 1.65062 25.808 7.87141 1.47819 
25.9362 5.74792 3.5547 24.0664 7.87839 3.76625 23.9841 7.73239 -0.569321 
27.8841 5.73135 1.41425 29.7592 7.79724 1.61504 29.8285 5.76964 3.53772 
27.7853 7.88231 3.54933 29.7856 5.70261 -0.412142 31.7687 5.7219 1.54242 
33.6616 7.79974 1.43807 33.755 5.83793 3.67567 31.8608 7.7556 3.69697 
39.5476 7.88084 3.6051 35.5812 5.76388 1.63999 37.498 7.91872 1.68959 
37.7328 5.81444 3.60791 35.7471 7.88661 3.84178 37.4719 5.78565 -0.441488 
4.91009 9.74177 1.42465 2.93488 11.8328 1.67778 3.06724 9.73368 3.74393 
4.92855 12.038 3.59074 1.05455 9.88342 1.68049 4.92181 11.8679 -0.751988 
1.09711 11.8959 3.78254 0.928931 11.8316 -0.555736 8.62228 9.82469 1.72671 
6.73826 12.0065 1.40243 6.60445 9.86684 3.66711 8.46752 11.922 3.66669 
8.85114 11.5655 -0.614317 12.5962 9.807 1.48687 10.6779 11.8052 1.40732 
10.5754 9.94881 3.55414 12.6053 12.0344 3.52329 10.7706 9.75331 -0.566685 
16.4102 9.74145 1.55465 14.5251 11.91 1.56196 16.4219 12.0306 -0.623198 
14.3946 9.78573 3.62831 16.2953 11.785 3.55748 14.5468 9.85363 -0.450576 
20.3126 10.0543 1.55622 18.2419 12.15 1.467 22.1405 12.004 1.46768 
18.4392 9.9983 3.56689 22.0613 9.91629 3.5906 20.2256 12.0425 3.44803 
23.9046 9.80482 1.26915 26.0331 11.9082 1.55261 26.011 10.0218 3.67106 
24.0396 11.8919 3.64002 29.769 9.76711 -0.404574 27.825 9.82124 1.5555 
29.8508 11.8333 1.66037 29.6913 9.82875 3.74269 27.9938 12.129 3.68568 
27.9607 11.8684 -0.450025 31.7218 9.92089 1.71403 33.7684 12.0305 1.4914 
33.7888 9.96188 3.63464 31.8308 12.016 3.67447 35.6524 9.94012 1.58923 
37.7157 11.9162 1.53274 37.5229 9.99935 3.60454 35.6847 11.9503 3.69346 
4.70873 13.9064 1.47542 2.91281 16.0229 1.39283 2.95708 13.9841 3.64496 
4.76321 16.1635 3.66933 4.95871 16.0003 -0.602175 1.16387 13.8244 1.4705 
8.63843 13.9321 1.40035 6.72957 15.8795 1.47472 6.67736 14.0113 3.55777 
8.55074 15.9279 3.60301 6.7126 14.0317 -0.638058 8.79067 15.9682 -0.605992 
8.69956 18.0532 1.55334 12.4732 13.987 1.50494 10.6306 15.9802 1.66325 
12.7198 16.1285 -0.498917 10.5376 13.9708 3.57644 12.4681 16.0118 3.68412 
16.3438 14.0818 1.48789 14.3794 16.083 1.7199 14.5467 13.9609 3.57779 
16.4314 16.1976 3.52655 20.2677 13.9785 1.57319 18.292 16.0787 1.55155 
22.2911 16.1331 1.70341 18.1409 14.0498 3.61212 22.2464 14.0822 3.65134 
20.1999 16.2613 3.69051 20.1779 16.0548 -0.556924 24.1645 14.1317 1.64012 
26.1749 16.2314 1.72863 26.0215 14.1948 3.64213 24.0764 16.064 3.87717 
24.2085 16.1373 -0.478724 27.8638 14.0144 1.56827 28.0105 16.0353 -0.325435 
29.9578 15.9403 1.62875 29.9247 14.0854 3.84154 28.0179 16.1711 3.79059 
29.9621 13.7915 -0.449154 31.8974 13.9068 1.61975 33.7776 15.8856 1.70039 
33.785 13.9313 3.4907 31.8823 16.0027 3.72682 33.7468 13.9385 -0.428634 
31.7992 16.005 -0.576333 39.6232 15.9936 3.47 35.9233 13.9787 1.58908 
37.8781 16.1562 1.456 37.6951 13.7504 3.74157 35.8201 15.9382 3.65558 
4.93053 18.105 1.53869 2.80216 20.2057 1.49005 4.82936 22.3279 1.5498 
2.82124 18.1519 3.59141 0.878913 20.3652 3.75418 2.8102 22.3823 3.42777 
4.87792 20.3192 3.56302 1.05487 18.1419 1.48425 2.74223 22.2979 -0.508044 
0.882727 22.12 1.49503 6.86464 20.2434 1.43431 8.5558 22.2141 1.63566 
6.77859 18.1324 3.59215 6.75428 22.2495 3.67628 8.72767 20.2675 3.62529 
6.80666 18.1104 -0.48515 8.5741 20.1354 -0.485687 12.3608 18.1343 1.53471 
10.5965 20.1803 1.51351 12.5424 22.1537 1.63347 10.534 18.2452 3.62602 
10.5763 22.3215 3.52105 12.3764 20.1581 3.5331 10.6626 22.2595 -0.327415 
16.3077 18.2954 1.53997 14.4558 20.2312 1.46699 16.3902 22.2305 1.65092 
14.3937 18.2858 3.75091 14.4267 22.052 3.71702 16.3385 20.1913 3.67972 
14.6563 18.0963 -0.559141 14.3534 22.131 -0.499344 20.2681 18.1528 1.6616 
18.2656 20.1944 1.71901 22.3513 20.1574 1.75271 20.2835 22.1506 1.55875 
18.2764 18.1536 3.6 22.2335 18.2206 3.71652 18.386 22.286 3.60368 
20.334 20.2572 3.81229 22.1872 22.3851 3.62669 18.5026 22.2788 -0.354909 
20.2503 20.17 -0.167823 24.154 18.091 1.64119 26.236 20.1307 1.46854 
24.2627 22.1449 1.57744 25.9732 18.2573 3.59323 24.2473 20.2187 3.77533 
26.1448 22.1243 3.51008 24.1179 20.1338 -0.483972 28.129 18.2034 1.64524 
30.0997 22.3786 -0.449918 30.0087 20.2924 1.67828 28.0736 22.4776 1.39718 
29.8857 18.0959 3.65192 28.038 20.2869 3.73425 29.9395 22.4022 3.62924 
28.3629 20.2735 -0.375761 29.8789 18.0714 -0.604811 31.8285 18.1951 1.72428 
33.6898 20.242 1.5538 31.7547 22.4137 1.52585 33.7428 18.1211 3.83869 
31.8917 20.1955 3.79691 33.8069 22.3196 3.59412 33.8844 22.3924 -0.292095 
33.7492 18.1018 -0.385966 31.7458 20.0888 -0.500123 35.5948 18.2148 1.70657 
37.5656 22.3236 -0.598102 37.6464 20.1723 1.61326 35.858 22.428 1.496 
37.6691 18.1998 3.54065 35.7532 20.2144 3.78646 37.3867 22.4567 3.6526 
35.7963 20.1618 -0.438999 2.86447 24.544 1.68635 4.80036 26.5792 1.55842 
2.87523 26.6316 3.68449 4.82309 24.2589 3.55682 4.66724 24.2809 -0.44847 
2.92673 26.4296 -0.55638 6.68192 24.5745 1.57903 8.73802 26.5102 1.56038 
6.72762 26.3763 3.51722 8.73618 24.3575 3.73745 6.73198 26.5817 -0.551683 
8.51222 24.441 -0.590833 10.6493 26.4313 -0.430939 10.5736 24.3934 1.643 
12.4867 26.3781 1.78003 10.6705 26.3984 3.84531 12.5761 24.188 3.69391 
12.5585 24.4024 -0.351242 14.5119 24.2985 1.65743 16.5507 26.2761 1.61529 
14.5325 26.4775 3.54902 16.3809 24.1703 3.67564 14.4209 26.3907 -0.173758 
18.2914 24.1705 1.67337 22.1936 24.2789 1.82778 20.2434 26.3836 1.61826 
18.3733 26.4178 3.68829 20.1602 24.3488 3.80634 22.2576 26.4335 3.7361 
26.0303 24.4568 1.40581 23.9006 26.4735 1.65956 24.1367 24.4086 3.78278 
25.9869 26.5665 3.5706 25.9154 26.5002 -0.575219 30.0327 24.5613 1.56064 
27.9036 26.3867 1.52609 27.7997 24.2849 3.71929 29.8429 26.5856 3.6174 
29.9965 26.4544 -0.585929 27.9617 24.4385 -0.503911 33.8044 24.4325 1.78802 
31.9515 26.7168 1.69028 31.8599 24.5121 3.58428 33.8469 26.5969 3.72064 
32.0172 24.487 -0.523797 33.7554 26.6222 -0.432147 39.5697 26.6093 1.5076 
39.4961 24.532 3.56843 37.5672 24.5032 1.69873 35.5474 26.5285 1.61407 
35.7047 24.5842 3.74144 37.7403 26.6372 3.54394 35.7181 24.4471 -0.569147 
37.5796 26.4823 -0.593538 2.85713 28.6089 1.44628 4.67029 30.6994 1.40374 
3.04944 30.8299 3.60973 4.71065 28.6596 3.57779 4.82239 28.5379 -0.668102 
6.7215 28.7288 1.4455 8.70484 30.7761 1.42307 6.74617 30.6954 3.53213 
8.68068 28.3797 3.48795 8.8695 28.4863 -0.363797 6.77798 30.6465 -0.570825 
10.7007 28.5059 1.61145 12.5712 30.5526 1.64343 10.6717 30.5443 3.54281 
12.5014 28.5196 3.87299 14.5705 28.4411 1.69413 16.298 30.5254 1.56376 
14.5374 30.5397 3.69514 16.6847 28.5145 3.61376 14.3798 30.4564 -0.437465 
18.4072 28.5919 1.65123 22.1728 28.388 1.61492 20.1018 30.6066 1.59045 
18.3554 30.7805 3.57668 20.2086 28.5233 3.65562 22.1568 30.6408 3.57325 
22.2025 30.495 -0.366843 18.0388 30.6485 -0.460582 25.965 28.458 1.57843 
24.0978 30.6278 1.48011 24.1028 28.5407 3.6489 25.914 30.4868 3.64225 
26.0118 30.4499 -0.511291 24.1291 28.3618 -0.520206 29.9093 28.4282 1.50372 
28.0161 30.6605 1.55749 27.9417 28.5381 3.51006 29.925 30.8172 3.54033 
29.9088 30.4893 -0.475423 31.8458 28.5681 -0.596814 33.8109 28.6917 1.62203 
31.9424 30.5118 1.48191 31.7254 28.6815 3.61108 33.7209 30.8823 3.62181 
33.6884 30.5607 -0.513066 39.3691 30.6162 1.50849 39.6005 28.8055 3.69713 
37.5182 28.5101 1.55493 35.7335 30.5641 1.49031 35.6079 28.6063 3.76924 
37.4461 30.7282 3.57622 37.7263 30.7571 -0.563173 35.778 28.6264 -0.561963 
2.78467 32.6288 1.5948 4.75093 34.7709 1.44509 2.96624 34.6697 3.74347 
[...]
POINT_DATA 4000
FIELD FieldData 6
id 1 4000 int
4 8 43 402 445 441 41 2 12 
47 406 449 409 16 51 410 453 10 
53 20 55 414 457 417 15 17 14 
24 59 63 418 422 461 421 19 23 
22 18 28 67 426 465 425 26 32 
71 430 469 31 30 29 36 75 434 
473 73 35 33 401 40 79 438 477 
437 38 48 83 442 485 85 42 44 
52 87 446 489 46 89 56 91 450 
493 93 50 60 95 454 497 54 97 
64 99 103 458 462 501 62 68 107 
466 505 105 72 111 470 509 70 76 
115 474 513 481 80 119 478 517 78 
88 123 482 525 84 125 521 121 92 
127 486 529 129 96 131 490 533 90 
100 135 137 494 537 94 104 139 143 
498 502 541 108 147 506 545 110 112 
151 510 549 149 116 155 514 553 120 
159 518 557 128 163 522 565 165 124 
132 167 526 569 126 169 172 136 171 
173 530 573 140 175 534 577 144 179 
183 538 542 581 181 148 187 546 585 
185 152 189 191 550 589 150 156 195 
554 593 154 193 561 160 199 558 597 
168 203 208 562 601 602 605 164 202 
204 207 212 566 606 609 166 209 176 
211 216 570 610 613 210 180 215 220 
574 614 617 174 214 184 219 223 224 
578 582 618 621 622 218 221 188 227 
228 586 625 626 225 192 230 231 232 
590 629 630 229 190 196 235 236 594 
633 634 234 194 233 200 238 239 240 
598 637 638 237 243 248 642 645 245 
242 247 252 646 649 246 249 250 251 
256 650 653 253 255 260 654 657 254 
259 263 264 658 661 662 267 268 665 
666 266 271 272 669 670 270 269 275 
276 673 674 273 274 244 641 279 280 
677 678 277 278 283 288 682 685 285 
287 292 686 689 289 286 291 296 690 
693 295 300 694 697 294 299 303 304 
698 701 702 302 298 307 308 705 706 
306 305 311 312 709 710 310 313 315 
316 713 714 314 284 681 319 320 717 
718 318 317 323 328 722 725 324 322 
327 332 726 729 326 331 336 730 733 
333 335 340 734 737 334 337 339 343 
344 738 741 742 347 348 745 746 345 
351 352 749 750 350 355 356 753 754 
721 359 360 757 758 357 321 3 5 
405 363 368 762 765 365 364 362 7 
367 372 766 769 366 11 413 371 376 
770 773 375 380 774 777 377 374 379 
383 384 778 781 782 382 21 27 387 
388 785 786 429 391 392 789 790 389 
433 395 396 793 794 393 394 361 761 
39 399 400 797 798 404 408 443 802 
845 841 412 447 806 849 407 411 416 
451 810 813 853 420 455 814 857 424 
459 463 818 821 822 861 423 428 467 
825 826 865 427 432 471 830 869 436 
475 834 873 440 479 838 877 837 439 
448 483 842 885 881 452 487 846 889 
456 491 850 893 460 495 854 897 464 
499 503 858 862 901 468 507 866 905 
472 511 870 909 476 515 874 913 444 
480 519 878 917 488 523 882 925 484 
921 492 527 886 929 496 531 890 933 
500 535 894 937 504 539 543 898 902 
941 508 547 906 945 512 551 910 949 
516 555 914 953 520 559 918 957 528 
563 922 965 524 532 567 926 969 536 
571 930 973 540 575 934 977 544 579 
583 938 942 981 548 587 946 985 552 
591 950 989 556 595 954 993 961 560 
599 958 997 568 603 608 962 1005 604 
1001 1002 572 607 612 966 1009 1006 576 
611 616 970 1010 1013 580 615 620 974 
1017 1014 584 619 623 624 978 982 1018 
1021 1022 986 588 627 628 1025 1026 592 
631 632 990 1029 1030 596 635 636 994 
1033 1034 564 600 639 640 998 1037 1038 
643 648 1042 1045 644 647 652 1046 1049 
651 656 1050 1053 655 660 1054 1057 659 
663 664 1058 1061 1062 667 668 1065 1066 
671 672 1069 1070 675 676 1073 1074 1041 
679 680 1077 1078 683 688 1082 1085 1081 
687 692 1086 1089 691 696 1090 1093 695 
700 1094 1097 699 704 1098 1101 1102 703 
707 708 1105 1106 711 712 1109 1110 715 
716 1113 1114 684 719 720 1117 1118 723 
728 1122 1125 724 727 732 1126 1129 731 
736 1130 1133 735 740 1134 1137 739 743 
744 1138 1141 1142 747 748 1145 1146 751 
752 1149 1150 755 756 1153 1154 1121 759 
760 1157 1158 403 801 805 763 768 1162 
1165 1161 809 767 772 1166 1169 771 776 
1170 1173 415 817 775 780 1174 1177 419 
779 783 784 1178 1181 1182 787 788 1185 
1186 829 431 791 792 1189 1190 833 435 
795 796 1193 1194 764 799 800 1197 1198 
808 843 1202 1245 804 812 847 1206 1249 
1209 816 851 1210 1253 820 855 1214 1257 
824 859 863 1218 1222 1261 819 828 867 
1226 1265 827 1225 832 871 1230 1269 1229 
836 875 1234 1273 1241 840 879 1238 1277 
839 1237 844 848 883 1242 1285 1281 852 
887 1246 1289 856 891 1250 1293 860 895 
1254 1297 864 899 903 1258 1262 1301 868 
907 1266 1305 872 911 1270 1309 876 915 
1274 1313 880 919 1278 1317 888 923 1282 
1325 1321 892 927 1286 1329 896 931 1290 
1333 900 935 1294 1337 904 939 1298 1302 
1341 943 908 947 1306 1345 912 951 1310 
1349 916 955 1314 1353 884 920 959 1318 
1357 928 963 1322 1365 924 932 967 1326 
1369 936 971 1330 1373 1370 940 975 1334 
1377 1338 944 979 983 1342 1381 948 987 
1346 1385 952 991 1350 1389 956 995 1354 
1393 996 1361 960 999 1358 1397 968 1003 
1008 1362 1402 1405 1004 972 1007 1012 1366 
1409 1406 976 1011 1016 1410 1413 980 1015 
1020 1374 1414 1417 984 1019 1023 1024 1378 
1382 1418 1421 1422 988 1027 1028 1386 1425 
1426 992 1031 1032 1390 1429 1430 1035 1036 
1394 1433 1434 1401 964 1000 1039 1040 1398 
1437 1438 1043 1048 1442 1445 1044 1441 1047 
1052 1446 1449 1051 1056 1450 1453 1055 1060 
1454 1457 1059 1063 1064 1458 1461 1462 1067 
1068 1465 1466 1071 1072 1469 1470 1075 1076 
1473 1474 1079 1080 1477 1478 1083 1088 1482 
1485 1084 1087 1092 1486 1489 1091 1096 1490 
1493 1095 1100 1494 1497 1099 1103 1104 1498 
1501 1502 1107 1108 1505 1506 1111 1112 1509 
1510 1115 1116 1513 1514 1481 1119 1120 1517 
1518 1123 1124 1128 1522 1525 1127 1132 1526 
1529 1131 1136 1530 1533 1135 1140 1534 1537 
1139 1143 1144 1538 1541 1542 1147 1148 1545 
1546 1151 1152 1549 1550 1155 1156 1553 1554 
1521 1159 1160 1557 1558 803 1201 1205 1163 
1168 1562 1565 1164 1561 807 1167 1172 1566 
1569 1213 811 1171 1176 1570 1573 815 1217 
1175 1180 1574 1577 1221 823 1179 1183 1184 
1578 1581 1582 1187 1188 1585 1586 831 1191 
1192 1589 1590 835 1233 1195 1196 1593 1594 
1199 1200 1597 1598 1208 1243 1602 1645 1204 
1601 1212 1247 1606 1649 1609 1207 1216 1251 
1610 1653 1220 1255 1614 1657 1617 1224 1259 
1263 1618 1622 1661 1621 1219 1228 1267 1626 
1665 1227 1232 1271 1630 1669 1629 1236 1275 
1634 1673 1235 1633 1641 1240 1279 1638 1677 
1239 1637 1244 1248 1283 1642 1685 1681 1252 
1287 1646 1689 1256 1291 1650 1693 1260 1295 
1654 1697 1299 1264 1303 1658 1662 1701 1268 
1307 1666 1705 1272 1311 1670 1709 1276 1315 
1674 1713 1280 1319 1678 1717 1288 1323 1682 
1725 1284 1292 1327 1686 1729 1296 1331 1690 
1733 1731 1300 1335 1694 1737 1304 1339 1343 
1698 1702 1741 1308 1347 1706 1745 1312 1351 
1710 1749 1316 1355 1714 1753 1721 1320 1359 
1718 1757 1328 1363 1722 1765 1332 1367 1726 
1769 1336 1371 1730 1773 1340 1375 1734 1777 
1738 1344 1379 1383 1742 1781 1348 1387 1746 
1785 1352 1391 1750 1789 1356 1395 1754 1793 
1761 1324 1360 1399 1758 1797 1368 1403 1408 
1762 1802 1805 1364 1801 1372 1407 1412 1766 
1806 1809 1376 1411 1416 1770 1810 1813 1380 
1415 1420 1774 1814 1817 1384 1419 1423 1424 
1778 1782 1818 1821 1822 1824 1388 1427 1428 
1786 1825 1826 1392 1431 1432 1790 1829 1830 
1396 1435 1436 1794 1833 1834 1404 1400 1439 
1440 1798 1837 1838 1443 1448 1842 1845 1444 
1447 1452 1846 1849 1451 1456 1850 1853 1455 
1460 1854 1857 1459 1463 1464 1858 1861 1862 
1467 1468 1865 1866 1471 1472 1869 1870 1475 
1476 1873 1874 1841 1479 1480 1877 1878 1483 
1488 1882 1885 1484 1487 1492 1886 1889 1491 
1496 1890 1893 1495 1500 1894 1897 1499 1503 
1504 1898 1901 1902 1507 1508 1905 1906 1511 
1512 1909 1910 1515 1516 1913 1914 1881 1519 
1520 1917 1918 1919 1523 1528 1922 1925 1527 
1532 1926 1929 1531 1536 1930 1933 1535 1540 
1934 1937 1539 1543 1544 1938 1941 1942 1547 
1548 1945 1946 1551 1552 1949 1950 1555 1556 
1953 1954 1921 1524 1559 1560 1957 1958 1203 
1605 1563 1564 1568 1962 1965 1567 1572 1966 
1969 1613 1211 1571 1576 1970 1973 1215 1575 
1580 1974 1977 1223 1579 1584 1978 1981 1982 
1583 1625 1587 1588 1985 1986 1231 1591 1592 
1989 1990 1595 1596 1993 1994 1961 1599 1600 
1997 1998 1608 1643 2002 2004 2008 2043 2045 
2041 1612 1647 2006 2012 2047 2049 1607 2007 
1616 1651 2010 2016 2051 2053 2011 1620 1655 
2014 2020 2055 2057 2019 1624 1659 1663 2018 
2022 2023 2024 2059 2061 2063 2021 1628 1667 
2025 2026 2028 2065 2067 1627 2027 1632 1671 
2030 2032 2069 2071 1631 1636 1675 2034 2036 
2073 2075 2035 1640 1604 1679 2038 2040 2077 
2079 1639 1648 1683 2042 2048 2083 2085 2044 
1644 1652 1687 2046 2052 2087 2089 1656 1691 
2050 2056 2091 2093 1660 1695 2054 2060 2095 
2097 1699 2058 1664 1703 2062 2064 2099 2101 
2103 1668 1707 2066 2068 2105 2107 1672 1711 
2070 2072 2109 2111 1676 1715 2074 2076 2113 
2115 2081 1680 1719 2078 2080 2117 2119 1723 
1688 2082 2084 2088 2123 2125 2121 1692 1727 
2086 2092 2127 2129 1696 2090 2096 2131 2133 
1700 1735 2094 2100 2135 2137 1739 2098 1704 
1743 2102 2104 2139 2141 2143 1708 1747 2106 
2108 2145 2147 1712 1751 2110 2112 2149 2151 
1716 1755 2114 2116 2153 2155 1684 1720 1759 
2118 2120 2157 2159 1728 1763 2122 2128 2163 
2165 2161 2124 1724 1732 1767 2126 2167 2169 
2132 1736 1771 2130 2136 2171 2173 1740 1775 
2134 2140 2175 2177 1783 1744 1779 2138 2142 
2144 2181 2183 2179 1748 1787 2146 2148 2185 
2187 1752 1791 2150 2152 2189 2191 1756 1795 
2154 2156 2193 2195 1760 1799 2158 2160 2197 
2199 1768 1803 1808 2162 2168 2202 2203 2205 
2208 1764 1772 1807 1812 2166 2172 2206 2209 
2212 2207 1776 1811 1816 2170 2176 2210 2211 
2213 2216 1780 1815 1820 2174 2180 2214 2215 
2217 2220 1784 1819 1823 2178 2182 2184 2218 
2219 2221 2223 2222 1788 1827 1828 2186 2188 
2225 2226 2227 2228 1792 1831 1832 2190 2192 
2229 2230 2231 2232 1796 1835 1836 2194 2196 
2233 2234 2235 2236 2201 1804 2204 2164 1800 
1839 1840 2198 2200 2237 2238 2239 2240 1843 
1848 2242 2243 2245 2248 2244 1847 1852 2246 
2247 2249 2252 1851 1856 2250 2251 2253 2256 
1855 1860 2254 2255 2257 2260 2224 1859 1863 
1864 2258 2259 2261 2262 2264 2263 1867 1868 
2265 2266 2267 2268 1871 1872 2269 2270 2271 
2272 1875 1876 2273 2274 2275 2276 2241 1844 
1879 1880 2277 2278 2279 2280 1883 1888 2282 
2283 2285 2288 1884 1887 1892 2286 2287 2289 
2292 1891 1896 2290 2293 2291 2296 1895 1900 
2294 2295 2297 2300 1899 1903 1904 2298 2299 
2301 2302 2304 2303 1907 1908 2305 2306 2308 
2307 1911 1912 2309 2310 2312 2311 1915 1916 
2313 2314 2315 2316 2284 2281 1920 2317 2318 
2319 2320 1923 1928 2322 2323 2325 2328 1924 
2321 1932 1927 2326 2327 2329 2332 1931 1936 
2330 2331 2333 2336 1940 1935 2334 2335 2337 
2340 1939 1943 1944 2338 2339 2341 2342 2343 
2344 1947 1948 2345 2346 2347 2348 1951 1952 
2349 2350 2351 2352 1955 1956 2353 2354 2356 
2355 2324 1959 1960 2357 2358 2359 2360 2005 
1603 2003 1963 1968 2362 2363 2365 2368 2361 
2009 1967 1972 2366 2367 2369 2372 1611 2013 
1971 1976 2370 2371 2373 2376 1615 2017 2015 
1975 1980 2374 2375 2377 2380 1623 1619 1979 
1983 1984 2378 2379 2381 2382 2383 2384 1987 
1988 2385 2386 2387 2388 2031 2029 1991 1992 
2389 2390 2391 2392 2033 1635 1995 1996 2393 
2394 2395 2396 2001 2039 1964 2364 2037 1999 
2000 2397 2398 2399 2400 2402 2408 2443 2445 
2405 2406 2412 2447 2449 2410 2416 2451 2453 
2414 2420 2455 2457 2417 2418 2422 2424 2459 
2461 2463 2421 2426 2428 2465 2467 2427 2430 
2432 2469 2471 2429 2434 2436 2473 2475 2441 
2404 2438 2440 2477 2479 2442 2448 2483 2485 
2444 2481 2446 2452 2487 2489 2450 2456 2491 
2493 2454 2460 2495 2497 2458 2462 2464 2499 
2501 2503 2466 2468 2505 2507 2470 2472 2509 
2511 2474 2476 2513 2515 2478 2480 2517 2519 
2482 2488 2523 2525 2521 2484 2486 2492 2527 
2529 2490 2496 2531 2533 2494 2500 2535 2537 
2498 2502 2504 2539 2541 2543 2506 2508 2545 
2547 2510 2512 2549 2551 2514 2516 2553 2555 
2518 2520 2557 2559 2522 2528 2563 2565 2561 
2524 2526 2532 2567 2569 2530 2536 2571 2573 
2534 2540 2575 2577 2538 2542 2544 2579 2581 
2583 2546 2548 2585 2587 2550 2552 2589 2591 
2554 2556 2593 2595 2558 2560 2597 2599 2562 
2568 2602 2603 2605 2608 2564 2566 2572 2606 
2607 2609 2612 2570 2576 2610 2611 2613 2616 
2574 2580 2614 2615 2617 2620 2578 2582 2584 
2618 2619 2621 2622 2623 2624 2586 2588 2625 
2626 2627 2628 2590 2592 2629 2630 2631 2632 
2594 2596 2633 2634 2635 2636 2601 2604 2598 
2600 2637 2638 2639 2640 2642 2643 2645 2648 
2646 2647 2649 2652 2650 2651 2653 2656 2654 
2655 2657 2660 2658 2659 2661 2662 2663 2664 
2665 2666 2667 2668 2669 2670 2671 2672 2673 
2674 2675 2676 2641 2644 2677 2678 2679 2680 
2682 2683 2685 2688 2686 2687 2689 2692 2690 
2691 2693 2696 2694 2695 2697 2700 2698 2699 
2701 2703 2704 2702 2705 2706 2707 2708 2709 
2710 2711 2712 2713 2714 2715 2716 2684 2681 
2717 2718 2719 2720 2722 2723 2725 2728 2726 
2727 2729 2732 2730 2731 2733 2736 2734 2735 
2737 2740 2738 2739 2741 2742 2743 2744 2745 
2746 2747 2748 2749 2750 2751 2752 2753 2754 
2755 2756 2724 2721 2757 2758 2759 2760 2403 
2401 2762 2763 2765 2768 2761 2764 2409 2407 
2766 2767 2769 2772 2413 2411 2770 2771 2773 
2776 2415 2774 2775 2777 2780 2423 2419 2778 
2779 2781 2782 2783 2784 2425 2785 2786 2787 
2788 2431 2789 2790 2791 2792 2433 2435 2793 
2794 2795 2796 2439 2437 2797 2798 2799 2800 
2802 2808 2841 2843 2845 2806 2812 2847 2849 
2810 2816 2851 2853 2811 2814 2820 2855 2857 
2815 2818 2822 2824 2859 2861 2863 2821 2819 
2825 2826 2828 2865 2867 2830 2832 2869 2871 
2831 2829 2834 2836 2873 2875 2804 2838 2840 
2877 2879 2839 2842 2848 2883 2885 2846 2852 
2887 2889 2850 2856 2891 2893 2854 2860 2895 
2897 2858 2862 2864 2899 2901 2903 2866 2868 
2905 2907 2870 2872 2909 2911 2874 2876 2913 
2915 2844 2881 2878 2880 2917 2919 2882 2888 
2921 2923 2925 2884 2886 2892 2927 2929 2890 
2896 2931 2933 2894 2900 2935 2937 2898 2902 
2904 2939 2941 2943 2906 2908 2945 2947 2910 
2912 2949 2951 2914 2916 2953 2955 2918 2920 
2957 2959 2922 2928 2963 2965 2926 2932 2967 
2969 2930 2936 2971 2973 2934 2940 2975 2977 
2938 2942 2944 2979 2981 2983 2946 2948 2985 
2987 2950 2952 2989 2991 2990 2954 2956 2993 
2995 2924 2961 2958 2960 2997 2999 2962 2968 
3002 3003 3005 3008 3004 2966 2972 3006 3007 
3009 3012 2970 2976 3010 3011 3013 3016 2974 
2980 3015 3017 3020 3014 2978 2982 2984 3018 
3019 3021 3022 3023 3024 2986 2988 3025 3027 
3028 3026 2992 3029 3030 3031 3032 2994 2996 
3033 3034 3035 3036 2964 3001 2998 3000 3037 
3038 3039 3040 3042 3043 3045 3048 3046 3047 
3049 3052 3050 3051 3053 3056 3054 3055 3057 
3060 3058 3059 3061 3062 3063 3064 3065 3066 
3067 3068 3069 3070 3071 3072 3073 3074 3075 
3076 3041 3044 3077 3078 3079 3080 3082 3083 
3085 3088 3084 3086 3087 3089 3092 3090 3091 
3093 3096 3094 3095 3097 3100 3098 3099 3101 
3102 3103 3104 3105 3106 3107 3108 3109 3110 
3111 3112 3113 3114 3115 3116 3081 3117 3118 
3119 3120 3122 3123 3125 3128 3124 3121 3126 
3127 3129 3132 3130 3131 3133 3136 3134 3135 
3137 3140 3138 3139 3141 3142 3143 3144 3145 
3146 3147 3148 3149 3150 3151 3152 3153 3154 
3155 3156 3157 3158 3159 3160 2805 2803 3162 
3163 3165 3168 3164 3161 2807 2809 3166 3167 
3169 3172 2813 3170 3171 3173 3176 2817 3174 
3175 3177 3180 2823 3178 3179 3181 3182 3183 
3184 2827 3185 3186 3187 3188 3189 3190 3191 
3192 2835 2833 3193 3194 3195 3196 2801 2837 
3197 3198 3199 3200 3202 3208 3243 3245 3241 
3203 3201 3206 3212 3247 3249 3207 3210 3216 
3251 3253 3213 3214 3220 3255 3257 3215 3218 
3222 3223 3224 3259 3261 3263 3219 3226 3227 
3228 3265 3267 3230 3232 3269 3271 3229 3234 
3236 3273 3275 3233 3235 3204 3237 3238 3240 
3277 3279 3242 3248 3283 3285 3246 3252 3287 
3289 3250 3256 3291 3293 3254 3260 3295 3297 
3258 3299 3262 3264 3301 3303 3266 3268 3305 
3307 3270 3272 3309 3311 3274 3276 3313 3315 
3281 3244 3278 3280 3317 3319 3282 3288 3323 
3325 3321 3286 3292 3327 3329 3290 3296 3331 
3333 3294 3300 3335 3337 3298 3302 3304 3339 
3341 3343 3306 3308 3345 3347 3310 3312 3349 
3351 3314 3316 3353 3355 3284 3318 3320 3357 
3359 3322 3328 3363 3365 3361 3324 3326 3332 
3367 3369 3330 3336 3371 3373 3334 3340 3375 
3377 3338 3342 3344 3379 3381 3383 3346 3348 
3385 3387 3350 3352 3389 3391 3354 3356 3393 
3395 3358 3360 3397 3399 3362 3368 3402 3403 
3405 3408 3364 3366 3372 3406 3407 3409 3412 
3370 3376 3410 3411 3413 3416 3374 3380 3414 
3415 3417 3420 3378 3382 3384 3418 3419 3421 
3422 3423 3424 3386 3388 3425 3426 3427 3428 
3390 3392 3429 3430 3431 3432 3394 3396 3433 
3434 3435 3436 3401 3404 3398 3400 3437 3438 
3439 3440 3442 3443 3445 3448 3446 3447 3449 
3452 3450 3451 3453 3456 3454 3455 3457 3460 
3458 3459 3461 3462 3463 3464 3465 3466 3467 
3468 3469 3470 3471 3472 3473 3474 3475 3476 
3441 3444 3477 3478 3479 3480 3482 3483 3485 
3488 3486 3487 3489 3492 3490 3491 3493 3496 
3494 3495 3497 3500 3498 3499 3501 3502 3503 
3504 3505 3506 3507 3508 3509 3510 3511 3512 
3513 3514 3515 3516 3481 3484 3517 3518 3519 
3520 3522 3523 3525 3528 3521 3524 3526 3527 
3529 3532 3530 3531 3533 3536 3534 3535 3537 
3540 3538 3539 3541 3542 3543 3544 3545 3546 
3547 3548 3549 3550 3551 3552 3553 3554 3555 
3556 3557 3558 3559 3560 3205 3562 3563 3565 
3568 3561 3564 3209 3566 3567 3569 3572 3211 
3570 3571 3573 3576 3217 3574 3575 3577 3580 
3221 3578 3579 3581 3582 3583 3584 3225 3585 
3586 3587 3588 3231 3589 3590 3591 3592 3593 
3594 3595 3596 3239 3597 3598 3599 3600 45 
3602 3608 3643 3645 3604 3605 3641 6 49 
3606 3612 3647 3649 9 3607 3610 3616 3651 
3653 3611 57 3614 3615 3620 3655 3657 3617 
61 3618 3622 3624 3659 3661 3663 3619 3623 
3621 65 3625 3626 3628 3665 3667 69 3630 
3632 3669 3671 3631 34 3634 3636 3673 3675 
3635 3633 77 3638 3640 3677 3679 3639 81 
3642 3648 3683 3685 3644 3646 3652 3687 3689 
3650 3656 3691 3693 3654 3660 3695 3697 58 
101 3658 3662 3664 3699 3701 3703 66 3666 
3668 3705 3707 109 3670 3672 3709 3711 74 
113 3674 3676 3713 3715 117 3681 3678 3680 
3717 3719 82 3682 3688 3723 3725 3684 3721 
86 3686 3692 3727 3729 133 3690 3696 3731 
3733 3694 3700 3735 3737 3739 141 102 98 
3698 3702 3704 3741 3743 145 106 3706 3708 
3745 3747 3710 3712 3749 3751 114 153 3714 
3716 3753 3755 118 157 3718 3720 3757 3759 
122 3722 3728 3763 3765 3726 3732 3767 3769 
130 3730 3736 3771 3773 177 134 3734 3740 
3775 3777 138 142 3738 3742 3744 3779 3781 
3783 146 3746 3748 3785 3787 3750 3752 3789 
3791 3754 3756 3793 3795 161 197 158 3761 
3724 3758 3760 3797 3799 205 162 3762 3768 
3802 3803 3805 3808 206 3772 3766 3806 3807 
3809 3812 213 170 3770 3776 3810 3811 3813 
3816 217 3774 3780 3815 3817 3820 3814 222 
178 3778 3782 3784 3818 3819 3821 3822 3823 
3824 182 186 226 3786 3788 3825 3826 3827 
3828 3790 3792 3829 3830 3831 3832 3794 3796 
3833 3834 3835 3836 201 198 3804 3764 3801 
3798 3800 3837 3838 3839 3840 3842 3843 3845 
3848 241 3846 3847 3849 3852 3850 3851 3853 
3856 257 3854 3855 3857 3860 262 261 258 
3859 3858 3861 3862 3863 3864 265 3865 3866 
3867 3868 3869 3870 3871 3872 3873 3874 3875 
3876 3844 3841 3877 3878 3879 3880 282 3882 
3883 3885 3888 3886 3887 3889 3892 290 293 
3890 3891 3893 3896 297 3894 3895 3897 3900 
301 3898 3899 3901 3902 3903 3904 3905 3906 
3907 3908 309 3909 3910 3911 3912 3913 3914 
3915 3916 3884 281 3881 3917 3918 3919 3920 
325 3922 3923 3925 3928 3921 329 3926 3927 
3929 3932 330 3930 3931 3933 3936 3934 3935 
3937 3940 342 338 341 3938 3939 3941 3942 
3943 3944 346 3945 3946 3947 3948 349 3949 
3950 3951 3952 354 353 3953 3954 3955 3956 
358 3924 3957 3958 3959 3960 1 3601 3603 
3962 3963 3965 3968 3961 369 3609 3966 3967 
3969 3972 370 13 3613 373 3970 3971 3973 
3976 3974 3975 3977 3980 378 381 3978 3979 
3981 3982 3983 3984 385 386 3627 25 3985 
3986 3987 3988 3629 390 3989 3990 3991 3992 
3993 3994 3995 3996 37 397 398 3964 3637 
3997 3998 3999 4000 
type 1 4000 int
1 1 1 1 1 1 1 1 1 
1 1 1 1 1 1 1 1 1 
1 1 1 1 1 1 1 1 1 
1 1 1 1 1 1 1 1 1 
1 1 1 1 1 1 1 1 1 
1 1 1 1 1 1 1 1 1 
1 1 1 1 1 1 1 1 1 
1 1 1 1 1 1 1 1 1 
1 1 1 1 1 1 1 1 1 
1 1 1 1 1 1 1 1 1 
1 1 1 1 1 1 1 1 1 
1 1 1 1 1 1 1 1 1 
1 1 1 1 1 1 1 1 1 
1 1 1 1 1 1 1 1 1 
1 1 1 1 1 1 1 1 1 
1 1 1 1 1 1 1 1 1 
1 1 1 1 1 1 1 1 1 
1 1 1 1 1 1 1 1 1 
1 1 1 1 1 1 1 1 1 
1 1 1 1 1 1 1 1 1 
1 1 1 1 1 1 1 1 1 
1 1 1 1 1 1 1 1 1 
1 1 1 1 1 1 1 1 1 
1 1 1 1 1 1 1 1 1 
1 1 1 1 1 1 1 1 1 
1 1 1 1 1 1 1 1 1 
1 1 1 1 1 1 1 1 1 
1 1 1 1 1 1 1 1 1 
1 1 1 1 1 1 1 1 1 
1 1 1 1 1 1 1 1 1 
1 1 1 1 1 1 1 1 1 