# vtk DataFile Version 4.0
Generated by LAMMPS
ASCII
DATASET POLYDATA
POINTS 4000 float
5.18279 1.20822 1.14265 3.29595 1.19208 -0.744857 3.30696 -0.841011 1.2186 
1.63932 -0.752918 3.4888 9.06744 1.17216 1.31209 7.34977 1.44181 -0.765644 
7.17597 3.32831 1.26979 7.20086 -0.799052 1.35018 8.91283 3.43434 -0.937496 
12.747 1.24005 1.27114 10.7647 3.35257 1.27524 10.9325 -0.749793 1.53473 
12.7235 -0.869927 -0.684152 16.4713 1.30669 1.29359 16.5663 3.24815 3.61517 
16.4101 -0.772483 3.33669 14.5123 3.31095 1.40917 14.6674 -0.750448 1.39932 
14.5275 1.33736 3.50729 16.314 3.52555 -0.764359 20.0941 1.29164 1.43487 
18.227 3.48939 1.3714 22.1717 3.28898 1.48595 22.2644 1.1147 3.39993 
22.0566 1.15867 -0.745857 23.9877 1.18028 1.26128 25.9465 1.51124 3.44505 
25.9858 -0.904337 1.26785 24.0542 3.43819 3.41446 27.7316 1.23084 1.28024 
29.4924 1.36177 -0.800869 29.4842 3.43177 1.10719 31.3363 1.26332 1.35386 
33.0552 3.31991 1.38879 33.3937 -0.904589 1.40962 31.3012 3.48287 3.31558 
38.8675 1.37113 1.28319 35.0992 1.20462 1.20272 36.9171 1.19903 3.33351 
3.44212 3.21189 1.326 5.24108 5.33748 1.29372 5.44734 7.43237 3.26162 
3.42795 5.56109 3.23538 5.34066 3.2622 -0.862047 3.30526 5.49653 -0.839826 
8.94355 5.48863 1.14048 7.28172 5.31385 3.5771 7.14297 7.50401 1.20318 
7.0759 5.48736 -0.776792 9.0562 7.4993 -0.852902 12.7245 5.53405 1.33721 
10.7828 7.71157 1.31424 12.788 7.75659 -0.618616 16.3182 5.53333 1.33275 
14.6911 7.66567 1.41328 20.3217 5.58342 1.26383 18.4151 7.50239 1.25033 
20.0081 3.47709 -0.641639 22.1057 5.28013 -0.796201 20.2444 7.48896 -0.928066 
25.8521 3.46025 1.34832 23.8065 5.36999 1.19237 25.964 5.44041 3.27195 
27.8549 5.56182 1.21385 31.4597 5.59531 1.21417 33.2202 5.52295 3.30281 
31.3097 7.75801 -0.861709 38.7321 5.42957 1.55632 36.9309 3.38186 1.4247 
35.0454 5.58025 1.29312 36.9883 7.68525 1.44185 37.0553 5.47331 -0.63232 
36.8144 5.38823 3.4675 35.2481 7.65512 -0.798964 38.7761 7.67661 -0.723374 
3.47445 7.53369 1.32025 5.40746 9.64855 1.14813 5.30689 11.737 3.36199 
3.48731 11.8083 1.16231 1.62243 7.64733 3.49698 5.31474 7.50067 -0.859759 
3.53977 9.67241 -0.743539 8.89937 9.87354 1.3757 7.12242 11.9028 1.33459 
6.93505 9.62185 3.62133 12.7384 9.71414 1.37684 10.8326 9.61167 3.38395 
10.8192 11.83 1.27627 12.6307 11.7324 3.50996 10.8787 9.68896 -0.668432 
16.6299 9.78942 1.30398 16.3853 7.58807 -0.748692 14.6131 9.78769 -0.736128 
22.041 7.65522 1.18689 20.1205 9.70671 1.3719 22.1541 11.8392 1.38672 
22.0994 9.75211 3.44364 18.4001 9.69731 -0.743645 18.3377 11.9146 1.40917 
18.4568 9.59964 3.47507 25.7615 7.53084 1.197 23.9656 9.6854 1.28966 
25.6459 9.73115 3.31948 25.8449 9.74133 -0.790936 29.4999 7.6374 1.30649 
27.7261 9.76323 1.26848 29.6402 11.7647 1.32276 27.6104 7.71436 3.38274 
33.3829 7.64624 1.14158 31.399 9.71402 1.38027 38.7851 9.64712 1.32335 
35.0405 9.82694 1.30017 36.9317 9.7657 3.37791 37.1693 11.6614 1.23911 
5.30728 13.9428 1.35791 5.20611 11.788 -0.933983 3.53243 14.0474 -0.575038 
9.07687 14.0231 1.26481 7.26275 16.219 1.36598 7.10771 14.046 -0.670841 
12.8898 14.0084 1.36342 10.8243 16.1513 1.34122 12.7994 16.1045 3.50952 
14.5804 11.6865 1.31346 16.3464 13.9565 1.35285 14.5545 13.8638 -0.866227 
14.6797 16.126 1.26421 14.5248 13.9518 3.60251 20.3477 13.9643 1.31753 
18.2233 15.884 1.2595 18.3522 13.8895 3.52619 18.3999 14.0205 -0.82722 
25.7805 11.7463 1.24654 24.2013 13.9266 1.37578 25.801 16.1844 1.27582 
24.0364 15.9852 -0.858391 25.8631 13.8219 3.53738 23.939 11.6831 -0.933415 
27.7362 13.9008 1.20311 33.2305 11.8079 1.37355 31.4779 11.8849 3.40042 
31.5949 13.9578 1.23384 33.259 16.153 1.23096 31.4241 16.0933 3.32182 
33.3398 13.6832 -0.850935 35.2242 11.712 -0.751763 38.9596 13.7898 1.29718 
35.0348 13.9481 1.22461 3.46181 16.0459 1.38486 5.40819 18.1267 1.4058 
1.63969 18.1161 1.25258 3.59116 18.1923 -0.781487 9.27027 18.1862 1.21925 
7.30026 20.2698 1.34777 9.25133 20.2363 -0.873893 7.32082 18.257 3.46264 
12.9304 18.032 1.21932 10.9617 18.148 -0.834769 12.9434 20.2114 -0.980549 
16.4232 18.102 1.19922 14.7859 17.9394 3.4963 22.0846 16.0316 1.27942 
20.1208 18.1525 1.20219 18.4288 20.3481 1.20361 22.0688 20.2526 1.27494 
20.0984 20.1006 3.51703 18.2001 17.9993 3.25404 22.0571 18.0723 3.27621 
18.4206 18.2078 -0.843956 23.9617 18.1737 1.30736 26.1039 18.1905 -0.764919 
24.008 16.0906 3.32845 25.9405 18.1928 3.11766 29.4462 15.9663 1.28318 
27.8833 18.334 1.31349 29.6131 18.0287 -0.950512 27.7281 15.9252 3.36463 
31.3555 18.2392 1.25662 33.2344 18.2055 -0.829111 31.474 15.7987 -0.748803 
37.1052 15.9098 1.13681 38.8321 15.8662 3.46033 35.1801 18.0583 1.18191 
37.1678 18.0393 3.45075 36.9643 20.2921 1.25514 37.0897 18.045 -0.774511 
3.6481 20.2544 1.28529 5.49482 22.2728 1.24863 1.7105 22.3362 1.42307 
5.298 24.3964 -0.874341 5.41189 20.2545 -0.727037 1.68757 20.2388 -0.773183 
3.51104 22.2413 -0.786915 9.05532 22.3257 1.2266 7.27798 24.5061 1.20895 
9.02194 24.6006 -0.93525 7.36094 22.3947 -0.821048 11.0737 20.2279 1.24523 
12.7712 20.2558 3.38932 12.8706 22.2726 1.27479 10.8135 24.5013 1.36017 
12.7566 24.598 3.40814 12.7756 24.3823 -0.736486 14.6893 20.2857 1.47053 
16.467 22.3411 1.20778 14.6089 24.4912 1.47012 16.5342 24.3741 3.35814 
20.1341 22.3858 1.42737 21.9927 22.2137 3.41924 18.4389 24.4506 1.20289 
22.232 22.3583 -0.931858 25.9081 20.3352 1.14816 23.945 22.4095 1.29898 
24.1193 20.2879 -0.856351 26.0868 22.3534 -0.932765 29.7173 20.2548 1.46328 
28.0334 20.3264 -0.691996 27.6718 22.6107 1.39607 27.7504 24.4824 -0.525204 
29.5548 22.3643 3.45064 29.7013 22.5039 -0.899367 33.3869 20.2152 1.26613 
31.5754 22.2028 1.3 33.2161 24.511 1.29064 31.5949 20.3174 3.39619 
33.2797 22.5334 -0.692241 35.2267 20.1995 -0.820706 35.1803 22.5588 1.33043 
36.9879 22.318 3.20014 37.0649 24.5158 1.31436 37.151 22.3372 -0.764496 
3.64412 24.4968 1.39946 5.29357 26.5316 1.17767 3.47404 26.6772 -0.890826 
1.72084 24.4046 -0.72259 5.29983 28.672 -0.798649 5.33988 28.8242 3.2606 
9.06315 26.6595 1.21835 7.1653 28.7091 1.14545 9.05719 28.6779 3.41417 
10.76 26.4768 -0.939918 12.8222 26.5352 1.08203 12.7119 28.5861 -0.853576 
16.6713 26.6477 1.33194 16.6048 28.6285 3.40163 14.5664 28.5651 1.13405 
21.9898 24.4121 1.31975 20.1706 26.5356 1.24553 18.2796 26.5223 3.57615 
25.7169 24.4599 1.37115 24.0829 26.4997 1.38222 25.7809 26.6485 -0.676804 
24.0522 24.3315 -0.722891 29.7753 24.5874 1.3444 27.8088 26.613 1.48209 
29.6251 28.6787 1.40465 29.5062 26.5269 3.43355 31.4931 24.5557 -0.914252 
31.5658 26.5747 1.26531 33.3726 26.7267 -0.809066 33.4695 28.7136 1.41814 
31.4603 28.714 -0.632558 31.4784 28.5939 3.54783 39.1665 26.5657 1.24031 
35.154 26.5546 1.48221 37.0739 26.6931 -0.638539 35.1858 24.3009 -0.818597 
3.46241 28.8825 1.36973 5.38968 30.935 1.24279 3.44609 32.9809 1.42919 
3.4658 30.989 -0.749096 1.55556 30.8904 1.41146 1.5188 28.8512 -0.682335 
9.21146 28.7358 -0.974814 8.99056 30.7469 1.09673 7.28216 33.1208 1.06481 
7.2735 30.7581 -0.960015 10.8222 28.7791 1.26736 12.6498 30.923 1.30309 
10.7983 30.8987 3.31509 10.8627 32.9044 1.19524 12.8076 28.8006 3.32308 
16.5244 30.6128 1.26371 18.4344 30.7354 3.30389 16.5912 32.8492 3.41311 
18.4989 28.7556 1.31598 20.4785 28.5965 3.38769 22.0859 28.5782 1.22346 
20.273 30.8847 1.18113 18.3473 33.0116 1.20323 20.1627 32.8999 3.45386 
26.0164 28.6194 1.31636 23.8902 30.7184 1.34647 26.0832 30.8648 -0.698057 
25.8182 33.052 1.10048 24.0428 32.8229 3.34595 27.8376 30.9038 1.35725 
29.5884 30.6702 3.46444 29.6454 32.7839 1.2034 27.6664 32.9861 -0.749752 
27.812 28.6073 -0.570666 31.4421 30.667 1.4603 33.1438 33.1021 1.16861 
31.4081 32.8086 3.29292 37.0226 28.7699 1.38897 35.3526 30.8317 1.50493 
35.0344 33.0313 -0.745639 38.932 32.9907 -0.775287 5.36236 35.0268 1.12886 
3.48109 35.0264 -0.884035 3.51856 36.9801 1.11732 1.61896 35.0629 1.30637 
5.45774 33.0024 -0.930625 5.27071 37.2033 -0.916086 9.16179 35.1817 1.4154 
9.19669 37.1544 -0.844061 8.98814 32.7853 -0.902221 7.37022 35.1429 -0.801577 
12.6445 34.9407 1.20175 12.8051 32.7411 3.20671 14.7513 32.8313 1.29394 
16.5227 34.9255 1.31368 16.5942 33.0451 -0.973816 14.4552 34.8764 3.35505 
14.6805 35.0008 -0.664983 22.2425 32.988 1.12102 20.4291 34.8116 1.32896 
18.3586 35.0071 3.35699 18.2501 37.0459 1.41652 20.2463 37.2673 3.41973 
20.0961 37.1644 -0.56444 23.9136 35.1338 1.42143 25.8416 37.2389 1.25201 
25.8292 34.7626 3.43636 24.0344 36.9958 3.37249 27.7909 34.9003 1.32449 
29.3803 35.1024 -0.794261 27.807 37.2075 -0.825239 27.8079 32.9349 3.44436 
29.5111 34.9318 3.41677 31.2202 35.0348 1.18426 33.1761 35.1685 -0.816886 
37.0313 33.0162 1.20888 35.2067 34.9966 1.30234 37.0788 34.9806 -0.773401 
5.2413 39.2049 1.23715 1.6101 39.218 1.38129 1.42404 37.2787 -0.622064 
1.43522 41.1334 -0.630013 3.41291 39.1395 -0.804541 9.146 41.3981 3.59927 
7.2668 37.1708 1.27469 8.89897 39.2711 1.28811 10.9247 37.2983 1.18523 
12.8682 39.0965 1.3075 10.8658 39.2171 3.39369 10.8934 39.1662 -0.848775 
12.8085 37.1101 -0.856137 16.5606 37.0462 3.43062 14.6988 36.9359 1.38919 
16.515 39.243 1.28735 14.6728 39.1979 -0.811095 21.9704 41.2755 1.34536 
18.1517 41.359 1.17308 21.9989 37.288 1.44167 20.1582 39.2729 1.32461 
20.196 41.3323 3.44854 24.0354 41.3164 3.43865 23.8196 39.2814 1.2402 
29.5602 41.3037 1.22188 29.4942 37.0703 1.51188 27.8344 39.2634 1.1873 
29.6283 39.2385 -0.84875 27.4474 36.8736 3.4216 29.5899 39.1744 3.37529 
31.2978 37.1513 -0.808863 33.2847 37.1118 1.30463 31.3857 39.1741 1.34445 
33.3301 39.1901 -1.03728 31.4416 41.3592 3.39373 31.6236 41.301 -0.708012 
36.9875 37.124 1.61184 36.9605 41.4361 1.33663 35.0791 39.1456 1.39458 
37.2228 39.227 3.37324 36.7673 39.1181 -0.747899 35.1381 37.0128 -0.727212 
3.42015 1.35746 3.44769 5.26094 1.57009 5.58008 3.4353 1.35491 7.58947 
3.64212 -0.614544 5.62683 1.59284 1.44366 5.47453 5.0721 -0.768693 3.324 
8.92376 3.29247 3.39428 7.1257 1.24646 3.40711 9.14949 1.36397 5.58479 
7.11743 -0.627604 5.55088 11.0059 1.31814 3.37972 12.8045 -0.874569 3.36867 
12.6644 1.20516 5.577 10.9904 1.2578 7.77559 12.8211 -0.873383 7.48486 
[...]
POINT_DATA 4000
FIELD FieldData 6
id 1 4000 int
8 2 3 401 12 6 47 7 49 
16 51 11 13 20 457 417 55 15 
414 57 24 59 63 422 22 28 426 
27 465 32 30 71 36 75 35 473 
4 40 438 43 48 485 442 45 42 
52 446 87 46 89 56 91 93 60 
95 64 99 61 62 101 67 68 466 
72 76 474 113 44 79 80 119 78 
478 117 81 83 88 525 123 481 85 
82 92 127 486 96 490 131 533 90 
100 97 94 103 104 143 502 98 139 
498 107 108 506 106 111 112 151 509 
115 116 84 120 518 159 128 125 122 
132 167 126 136 171 573 135 140 134 
175 534 144 179 538 138 147 148 187 
185 546 145 152 155 553 156 195 593 
154 157 124 160 163 168 164 162 172 
207 209 566 176 170 213 180 574 183 
184 219 223 621 578 582 178 188 186 
585 586 191 192 190 589 196 194 193 
199 561 200 598 239 198 203 208 204 
245 205 201 202 212 247 249 206 211 
613 216 251 653 253 215 220 255 657 
224 622 259 222 227 228 225 226 231 
229 232 269 630 230 235 236 275 633 
234 237 240 638 279 238 243 248 242 
241 285 685 252 287 689 250 256 293 
260 697 295 263 264 658 267 268 266 
265 271 272 311 670 273 276 274 315 
313 713 244 280 278 277 283 288 323 
282 284 281 289 292 327 286 291 296 
690 331 693 300 698 737 299 701 303 
304 339 741 307 308 306 347 745 312 
710 351 349 309 316 355 753 319 320 
357 321 328 322 363 324 325 365 332 
369 329 326 336 733 335 340 337 734 
334 343 344 738 379 781 381 348 387 
746 785 352 350 389 749 750 356 354 
359 360 358 368 364 361 1 362 409 
367 372 371 376 770 370 373 777 375 
380 374 23 19 383 384 421 425 388 
31 391 392 390 789 790 393 395 396 
394 433 33 399 39 400 798 398 397 
402 408 802 403 404 405 449 406 412 
407 410 413 416 810 813 420 418 461 
424 459 822 861 428 463 427 430 432 
469 431 429 830 829 434 436 435 475 
834 440 479 439 441 445 443 845 448 
842 447 452 453 450 451 456 491 850 
454 497 455 460 854 897 495 857 458 
462 464 503 501 499 862 467 468 865 
866 470 471 869 472 870 513 476 515 
873 517 444 477 480 482 521 483 488 
484 882 925 489 889 487 492 527 493 
496 531 933 494 537 500 535 541 504 
902 505 507 508 945 547 511 510 512 
910 949 514 516 555 914 557 519 917 
520 559 957 522 523 528 524 961 565 
526 529 532 569 926 530 536 571 930 
577 540 575 937 934 542 539 543 544 
942 938 545 548 946 549 551 550 552 
950 554 556 954 558 560 599 563 562 
605 568 962 609 567 572 969 966 1009 
570 576 1013 970 611 580 615 581 579 
583 584 978 982 619 587 985 588 986 
591 989 590 592 594 595 596 994 597 
564 600 998 639 997 603 602 645 608 
604 607 606 612 647 649 1006 610 616 
1010 651 617 614 620 1014 1017 618 623 
624 625 626 627 628 631 629 632 671 
634 635 636 675 1033 637 601 640 642 
641 643 648 1045 681 644 646 652 687 
1049 650 656 1093 655 654 660 1054 1097 
661 662 659 663 664 666 665 667 668 
707 1066 669 709 672 711 674 673 676 
678 677 679 680 1078 717 1077 683 682 
688 723 1085 686 692 727 1086 691 696 
1133 694 695 700 1094 699 703 702 704 
739 743 1141 705 706 708 1105 1145 712 
751 714 715 716 755 719 684 718 720 
759 765 721 725 722 728 724 1122 729 
726 732 767 1126 730 731 736 1130 735 
740 775 742 744 1142 783 779 747 748 
1146 752 791 1189 754 756 795 1154 757 
758 760 763 762 768 761 764 769 766 
772 1166 1169 773 771 411 776 1170 774 
415 780 1174 778 419 782 423 784 1182 
787 786 788 792 794 793 796 833 797 
799 437 800 808 1202 803 1241 805 1201 
806 812 807 847 1209 1249 816 811 853 
1210 1213 814 817 820 815 855 1217 818 
824 819 863 1218 1222 826 828 867 1265 
1226 1225 832 1230 871 1269 836 1273 1233 
838 837 877 804 840 839 843 844 848 
881 846 849 852 887 893 851 856 1293 
891 860 895 1254 858 859 864 1258 903 
1261 868 1266 905 907 872 1270 913 875 
874 876 915 1313 841 878 879 880 919 
885 883 1281 888 884 1282 886 892 1286 
929 927 890 896 894 900 1294 901 898 
899 904 1302 939 906 908 1306 909 911 
1309 912 1310 1349 916 955 1353 1314 918 
920 959 1321 922 923 928 1325 1322 932 
1329 973 931 936 971 1337 935 940 1334 
981 941 943 944 983 1342 947 948 951 
952 1350 953 956 1354 921 958 924 960 
1358 963 965 968 964 1003 967 972 1409 
1007 1369 1366 976 1011 1370 1413 977 974 
975 980 1374 1015 1377 979 984 1378 1023 
1021 1019 987 988 990 991 992 1390 993 
995 996 1035 1394 1037 999 1000 1039 1001 
1397 1005 1002 1008 1004 1445 1441 1401 1402 
1012 1406 1047 1449 1053 1016 1051 1410 1020 
1057 1414 1417 1022 1018 1024 1063 1422 1418 
1026 1025 1027 1028 1029 1030 1069 1031 1032 
1071 1034 1073 1036 1075 1038 1040 1041 1043 
1042 1048 1046 1052 1446 1050 1056 1453 1058 
1055 1060 1061 1062 1059 1064 1103 1461 1501 
1065 1067 1068 1107 1465 1070 1109 1072 1111 
1074 1076 1513 1079 1044 1080 1478 1083 1082 
1081 1088 1123 1482 1089 1087 1092 1090 1091 
1096 1095 1100 1135 1494 1099 1101 1098 1102 
1104 1498 1502 1106 1505 1108 1506 1545 1147 
1509 1110 1112 1549 1510 1113 1115 1114 1116 
1514 1553 1117 1118 1119 1084 1120 1125 1124 
1128 1165 1521 1565 1129 1529 1127 1132 1526 
1533 1131 1136 1530 1573 1137 1134 1140 1177 
1534 1139 1138 1143 1144 1181 1183 1538 1542 
1148 1585 1185 1187 1150 1149 1151 1152 1191 
1153 1193 1155 1156 1195 1159 1157 1121 1158 
1160 1199 1161 1162 801 1163 1168 1164 1561 
1562 809 1167 1172 1569 1173 1171 1176 1570 
1175 1180 1577 1574 821 1179 823 1178 1184 
1582 1578 825 1186 827 1188 1586 1190 831 
1192 1229 1194 835 1196 1197 1198 1200 1205 
1208 1204 1245 1243 1203 1206 1212 1606 1247 
1253 1216 1653 1613 1610 1214 1220 1614 1257 
1255 1215 1224 1223 1622 1228 1227 1267 1626 
1665 1232 1234 1236 1275 1633 1238 1240 1279 
1242 1248 1642 1285 1246 1252 1689 1250 1251 
1256 1650 1260 1654 1259 1263 1262 1264 1303 
1661 1301 1299 1701 1305 1268 1666 1307 1271 
1272 1670 1311 1669 1274 1276 1713 1673 1674 
1277 1244 1278 1280 1319 1677 1283 1681 1288 
1685 1287 1289 1292 1686 1290 1291 1296 1693 
1733 1690 1295 1297 1300 1298 1304 1343 1741 
1345 1705 1308 1347 1312 1351 1710 1315 1316 
1714 1753 1355 1318 1284 1317 1320 1359 1323 
1328 1365 1725 1722 1765 1327 1326 1332 1367 
1330 1373 1333 1331 1336 1335 1340 1341 1338 
1339 1344 1781 1383 1738 1346 1745 1348 1746 
1385 1387 1352 1750 1391 1356 1395 1754 1357 
1324 1360 1757 1797 1362 1363 1368 1405 1805 
1762 1372 1407 1769 1766 1371 1376 1411 1770 
1773 1375 1380 1379 1382 1381 1384 1419 1423 
1386 1388 1427 1389 1392 1790 1793 1393 1396 
1435 1361 1399 1364 1398 1400 1439 1761 1798 
1403 1408 1845 1802 1412 1806 1447 1849 1416 
1451 1415 1420 1457 1814 1421 1424 1463 1459 
1822 1425 1426 1428 1826 1429 1430 1431 1432 
1471 1830 1433 1434 1436 1473 1873 1438 1404 
1477 1437 1440 1442 1443 1485 1448 1444 1842 
1452 1487 1450 1456 1491 1853 1850 1497 1454 
1455 1460 1462 1458 1464 1466 1467 1468 1905 
1469 1470 1472 1511 1474 1475 1476 1515 1479 
1480 1519 1481 1878 1483 1488 1484 1486 1489 
1492 1889 1490 1493 1496 1893 1495 1500 1541 
1499 1503 1504 1543 1898 1507 1508 1547 1512 
1949 1551 1910 1516 1555 1517 1518 1520 1557 
1559 1918 1525 1522 1523 1528 1922 1527 1532 
1929 1531 1933 1536 1930 1535 1537 1540 1581 
1539 1544 1942 1583 1938 1546 1548 1946 1587 
1550 1589 1552 1591 1950 1989 1554 1556 1593 
1953 1524 1558 1560 1599 1563 1568 1564 1566 
1207 1567 1572 1966 1609 1969 1211 1571 1576 
1973 1970 1575 1580 1974 1617 1579 1221 1219 
1981 1584 1982 1621 1625 1588 1986 1231 1590 
1592 1629 1235 1595 1594 1596 1994 1993 1598 
1237 1239 1597 1600 1602 1608 1641 1645 1643 
2002 1649 1612 2006 1607 2009 1616 2010 2053 
1611 1620 1655 1615 2017 2014 1618 1624 2022 
1659 1619 2061 2018 2021 1628 1627 2026 1630 
1632 2030 1634 1636 2034 1638 1601 1637 1604 
1640 2038 2041 1648 1644 2042 1646 1647 1652 
2049 1651 1656 2050 2093 1657 1660 2097 1663 
1658 1662 1664 1699 1703 1667 1668 2066 1707 
1709 1671 1672 2070 1711 2109 1675 1676 1715 
2074 1678 1679 1680 1719 2078 1682 1683 1688 
1684 1687 1692 1729 2086 1691 1696 2090 2133 
1697 1694 1737 1695 1700 1735 1702 1698 1704 
1743 2098 2141 1706 1708 2106 2105 2145 1712 
1751 1716 1755 1717 1718 1720 1759 1723 1728 
2122 1726 1727 1732 2129 2126 1730 1731 1736 
1771 1734 1740 2134 2137 1739 1742 1744 2138 
1783 2142 1747 1748 2146 1785 2185 1749 1789 
1752 1791 2150 1756 1795 1721 1758 1724 1760 
1799 2197 2165 1763 1768 2162 1803 1767 1772 
2209 1809 2169 2166 2173 1776 2170 1777 2177 
1774 1775 1780 2174 1778 1782 1779 1821 1784 
1819 2178 2181 1786 1787 1788 2186 1829 2189 
1792 2190 1794 1833 1796 1835 2194 1764 1800 
1837 1839 2201 1801 1808 2245 1804 2202 1807 
1812 1847 2206 2249 1813 1810 1811 1816 1817 
1815 1820 1861 1823 1818 1824 1825 1827 1828 
1865 1831 1832 1869 1871 1834 1836 1875 1838 
1840 2238 1881 1843 1848 1883 1844 1885 2281 
1846 1852 1887 2246 1851 1856 2253 1857 1854 
1855 1860 1862 1863 1858 1859 1864 1901 1866 
1867 1868 1870 1872 1911 2270 1913 1874 1876 
2313 2273 1877 1841 1879 1880 1882 1888 2282 
1884 1921 1886 1892 1891 1890 1896 1897 1895 
1894 1900 1935 2294 1902 1899 1903 1904 1941 
1943 2298 1906 1907 1908 1947 1909 1912 2349 
2310 1914 1915 1916 2353 1917 1957 1919 1920 
2318 1925 1923 1928 1963 2322 1926 1927 1932 
2326 1931 1936 2330 1937 1934 1977 1940 1975 
2334 1939 1944 2338 2341 2342 1945 1948 2345 
2346 1951 1952 1991 2389 1954 1955 1956 1995 
1959 1924 1958 1960 1997 1965 1605 2005 1961 
1603 1962 1968 2362 1964 1967 1972 2366 1971 
1976 2370 1980 2377 2374 1978 1979 1983 1984 
2382 2381 2378 1985 2385 1623 1987 1988 2025 
2386 1631 1990 1992 2029 2390 1635 1996 1639 
1998 1999 2000 2001 2004 2008 2003 2012 2047 
2007 2409 2013 2016 2410 2011 2413 2020 2057 
2019 2023 2024 2063 2418 2422 2421 2028 2065 
2067 2425 2032 2071 2429 2430 2031 2033 2036 
2073 2075 2035 2040 2037 2079 2039 2045 2445 
2043 2048 2044 2083 2481 2046 2052 2051 2056 
2450 2091 2055 2054 2060 2457 2059 2058 2062 
2064 2101 2461 2458 2068 2462 2505 2069 2072 
2470 2111 2113 2076 2115 2513 2474 2077 2117 
2080 2119 2478 2085 2082 2088 2084 2525 2485 
2089 2087 2092 2127 2096 2131 2493 2094 2095 
2100 2494 2497 2102 2099 2103 2501 2104 2498 
2139 2502 2107 2108 2506 2110 2509 2112 2151 
2149 2114 2116 2155 2081 2118 2121 2120 2157 
2518 2123 2125 2128 2522 2561 2163 2565 2132 
2526 2130 2136 2530 2135 2140 2175 2537 2143 
2144 2179 2538 2147 2148 2546 2187 2152 2191 
2550 2549 2153 2154 2156 2158 2159 2124 2160 
2199 2161 2168 2164 2605 2167 2172 2207 2566 
2609 2171 2573 2176 2570 2577 2180 2574 2221 
2182 2183 2184 2621 2219 2581 2578 2225 2188 
2227 2229 2192 2231 2193 2195 2196 2233 2235 
2633 2198 2200 2239 2237 2637 2601 2205 2203 
2208 2243 2602 2212 2247 2210 2213 2211 2216 
2251 2217 2257 2215 2214 2220 2255 2218 2222 
2223 2224 2622 2226 2228 2267 2626 2265 2230 
2232 2629 2269 2271 2234 2236 2241 2204 2240 
2277 2677 2242 2248 2244 2252 2287 2646 2250 
2293 2256 2291 2653 2254 2260 2697 2261 2258 
2301 2259 2264 2263 2299 2658 2662 2262 2266 
2268 2272 2670 2311 2274 2275 2276 2713 2315 
2674 2279 2278 2280 2678 2317 2319 2283 2285 
2288 2323 2682 2329 2286 2289 2292 2689 2290 
2296 2331 2297 2295 2300 2335 2694 2737 2303 
2302 2304 2702 2698 2741 2306 2305 2308 2307 
2347 2745 2706 2309 2312 2710 2351 2314 2316 
2355 2753 2284 2357 2320 2359 2721 2325 2321 
2365 2328 2324 2327 2332 2333 2336 2371 2337 
2340 2375 2777 2343 2339 2344 2738 2742 2383 
2348 2350 2352 2391 2750 2354 2356 2754 2395 
2358 2360 2397 2399 2363 2368 2765 2367 2369 
2372 2373 2376 2773 2770 2015 2380 2774 2379 
2384 2781 2778 2782 2387 2027 2388 2785 2786 
2789 2392 2790 2393 2793 2394 2396 2433 2364 
2361 2398 2400 2402 2405 2408 2443 2404 2403 
2406 2412 2416 2411 2813 2451 2810 2414 2420 
2417 2814 2817 2424 2818 2423 2861 2426 2428 
2467 2826 2865 2427 2469 2432 2830 2434 2473 
2436 2475 2873 2833 2438 2401 2440 2838 2442 
2448 2842 2441 2444 2449 2447 2446 2452 2453 
2456 2454 2455 2460 2495 2857 2459 2463 2464 
2862 2465 2466 2468 2866 2905 2507 2471 2472 
2511 2870 2476 2515 2477 2479 2480 2517 2519 
2881 2482 2483 2488 2882 2489 2529 2487 2486 
2492 2527 2490 2491 2496 2531 2890 2500 2897 
2541 2499 2503 2504 2539 2543 2941 2901 2902 
2898 2545 2508 2906 2945 2547 2510 2909 2512 
2551 2514 2913 2516 2914 2555 2953 2557 2484 
2520 2521 2523 2528 2524 2925 2922 2569 2532 
2567 2926 2533 2536 2933 2535 2534 2540 2575 
2934 2542 2544 2579 2981 2942 2585 2548 2587 
2589 2552 2591 2553 2554 2556 2595 2558 2559 
2560 2597 2599 2563 2562 2568 2564 2603 2965 
2962 2572 2607 2966 2571 2576 2613 3013 2611 
2617 2580 2615 2974 2582 2583 2584 2978 2982 
2619 3021 2623 2586 2588 2985 2627 2590 2592 
2631 3029 2593 2594 2596 2635 2598 2600 2639 
3001 2608 2643 2606 2649 2612 2647 3049 3006 
2610 2616 2651 3010 2614 2657 2620 2655 2618 
2661 2624 3022 2659 3018 3061 2625 2665 2628 
3026 2667 2630 2669 2632 2671 2673 2634 2636 
3034 3033 3073 2604 2638 2640 2641 2645 2642 
2648 2685 2683 2681 2652 2650 2656 2691 3050 
3053 2654 2660 2695 3054 3097 2701 2663 2664 
2699 3062 3101 2666 2668 3065 3066 2705 2672 
3070 2675 2676 2715 3074 2717 2679 2644 2680 
2719 2688 2684 2725 2723 3121 2686 2687 2692 
2690 3093 2693 2696 2733 2731 2700 3094 3137 
2703 2704 2743 3098 3102 2707 2708 3145 2709 
2711 2712 2714 2716 2755 2718 2720 2759 2722 
2728 2724 2729 2726 2727 2732 3126 2767 3169 
2730 2736 3173 2771 2734 2735 2740 2739 2744 
2779 3138 2783 2747 2746 2748 3146 2749 2751 
2752 3149 3150 3189 3153 2756 3154 2757 2758 
2760 2797 3158 2763 2762 2768 2764 2407 2769 
2766 2772 3166 2809 2776 3170 2415 2775 2780 
3174 2419 2784 3182 3178 3181 3185 2787 2788 
3186 2829 2791 2431 2792 3190 2794 2435 2795 
2796 2437 2798 2439 2761 2799 2800 2802 2801 
2808 2803 2841 3202 3245 2806 2849 2812 2847 
2816 3210 2851 2820 2815 3214 2822 2821 2824 
3221 2819 2823 3222 3218 2825 2828 3226 3265 
3225 2867 2832 3269 2869 2871 2834 2836 2875 
2835 2804 2840 2837 3237 2843 2845 2848 2844 
2846 2852 3249 2853 2850 2856 2891 3250 3293 
2855 2854 2860 2858 2859 2863 2864 2868 2907 
3266 2872 3270 3309 2911 2874 2876 2915 3274 
3313 2877 2879 2878 2880 2917 2885 2921 3285 
2883 2888 2889 2886 2887 2892 3286 3329 2893 
2896 2894 2895 2900 3297 3298 3301 2903 2899 
2904 3302 2939 2943 3341 2908 2947 3306 2910 
2949 2912 2916 3353 2955 3314 2918 2919 3317 
2884 2920 2957 3357 2923 2928 2929 2927 2932 
2969 3326 3369 2931 2930 2936 3330 2977 2937 
2935 2940 3337 2975 3377 2938 2944 3338 2979 
2946 2948 2987 3346 2950 2989 2951 2952 2991 
2993 2954 2956 2995 2959 2924 2958 2960 2961 
2997 2963 2968 2964 3003 3365 3362 3009 2967 
2972 3007 2973 2971 2970 2976 3011 3017 2980 
2983 2984 3381 3019 3023 3382 2986 3025 2988 
3027 3425 2990 3389 2992 3031 3390 3429 2994 
2996 2999 2998 3000 3039 3045 3005 3002 3008 
3041 3004 3043 3012 3016 3051 3410 3014 3015 
3020 3414 3055 3417 3421 3024 3422 3418 3063 
3028 3426 3030 3032 3071 3430 3035 3036 3434 
3037 3077 3038 3040 3079 3085 3042 3048 3083 
3449 3046 3047 3052 3089 3056 3057 3060 3454 
3059 3058 3064 3099 3458 3462 3461 3067 3068 
3466 3105 3107 3465 3069 3469 3072 3470 3109 
3075 3076 3115 3078 3044 3080 3081 3119 3481 
3082 3088 3123 3521 3125 3525 3086 3087 3092 
3127 3090 3091 3096 3490 3131 3533 3493 3095 
3100 3497 3103 3104 3139 3141 3501 3498 3502 
3106 3108 3147 3110 3111 3112 3510 3549 3113 
3114 3116 3155 3117 3118 3084 3120 3157 3161 
3122 3128 3163 3522 3165 3561 3129 3132 3130 
3133 3136 3573 3530 3134 3135 3177 3140 3534 
3142 3143 3144 3179 3542 3581 3148 3187 3585 
3546 3151 3152 3193 3156 3554 3159 3124 3160 
3558 3199 2805 3565 3162 3168 3167 2807 3172 
3171 2811 3176 3175 3180 3574 3217 3183 3184 
3578 3582 2827 3188 3586 3191 2831 3192 3229 
3195 3194 3196 3593 3197 3201 2839 3164 3198 
3200 3598 3205 3208 3204 3209 3206 3212 3609 
3649 3216 3251 3253 3653 3610 3613 3213 3211 
3220 3614 3657 3215 3617 3261 3224 3263 3223 
3618 3622 3228 3267 3227 3665 3230 3232 3271 
3231 3234 3273 3236 3634 3673 3633 3238 3277 
3240 3279 3638 3243 3242 3248 3685 3283 3246 
3247 3252 3689 3256 3291 3693 3254 3257 3255 
3260 3697 3295 3258 3262 3259 3264 3658 3662 
3299 3268 3305 3272 3670 3709 3311 3275 3276 
3315 3713 3674 3278 3241 3244 3280 3677 3282 
3281 3288 3284 3289 3287 3292 3327 3290 3296 
3331 3690 3733 3294 3300 3335 3303 3304 3343 
3339 3698 3345 3307 3308 3347 3706 3310 3312 
3351 3316 3355 3753 3714 3319 3321 3318 3320 
3359 3717 3325 3323 3322 3328 3363 3332 3367 
3726 3769 3333 3336 3730 3334 3340 3375 3734 
3777 3342 3344 3742 3781 3383 3738 3379 3741 
3348 3746 3349 3350 3352 3750 3393 3354 3356 
3395 3754 3358 3324 3360 3397 3761 3368 3805 
3361 3364 3366 3372 3766 3413 3373 3371 3370 
3376 3773 3813 3770 3374 3380 3378 3384 3778 
3385 3386 3387 3388 3786 3427 3391 3789 3392 
3790 3433 3394 3396 3399 3401 3398 3400 3403 
3405 3402 3408 3443 3445 3802 3409 3407 3406 
3412 3849 3453 3411 3416 3451 3810 3817 3415 
3420 3814 3419 3423 3424 3459 3818 3822 3428 
3431 3432 3830 3471 3829 3869 3435 3436 3873 
3833 3438 3441 3437 3404 3439 3440 3442 3448 
3485 3881 3446 3447 3452 3489 3846 3450 3456 
3491 3457 3455 3857 3460 3897 3861 3463 3464 
3862 3503 3858 3467 3468 3507 3866 3509 3472 
3473 3474 3475 3476 3477 3478 3479 3444 3480 
3517 3878 3917 3483 3482 3488 3523 3885 3529 
3487 3486 3492 3886 3496 3494 3495 3500 3937 
3894 3499 3504 3902 3901 3505 3506 3508 3547 
3905 3511 3512 3949 3910 3514 3553 3513 3515 
3516 3555 3519 3484 3518 3520 3559 3528 3524 
3965 3526 3527 3532 3567 3926 3531 3933 3536 
3537 3535 3540 3934 3541 3538 3539 3543 3544 
3579 3583 3545 3548 3946 3945 3550 3551 3552 
3950 3556 3954 3557 3957 3560 3599 3562 3203 
3563 3568 3564 3962 3569 3566 3207 3572 3570 
3571 3576 3970 3577 3575 3580 3219 3584 3978 
3981 3621 3587 3588 3625 3589 3590 3591 3592 
3990 3233 3235 3595 3594 3596 3597 3239 3637 
3600 5 3602 3608 3603 3643 3606 3612 3647 
3607 10 3616 3651 14 3620 3655 18 3624 
3659 3619 3623 26 65 3626 3628 3627 3630 
3669 69 3632 3671 34 73 3636 3675 3604 
38 3640 3679 3645 3641 3642 3648 3683 3646 
3652 3687 3650 53 50 3656 3654 54 3660 
3695 3661 58 3663 3664 3699 3666 3705 3667 
66 3668 3707 70 3672 3711 74 3676 3678 
41 77 3644 3680 3682 3688 121 3684 3725 
3723 3686 3729 86 3692 3691 3696 133 3731 
3737 3694 3700 3735 3701 3702 102 3703 141 
3704 3739 105 3708 3747 110 3710 3749 109 
3712 3715 114 3716 3755 118 3718 3681 3719 
3720 3757 3721 3722 3728 3724 3765 129 3727 
3732 130 3736 137 177 3740 3775 3743 142 
3744 3779 3745 3785 146 3748 3787 150 149 
3751 3752 153 3793 3756 158 197 3759 3758 
3760 3799 3797 165 161 3762 3763 3768 3764 
3803 169 3767 166 3772 3809 173 3771 3776 
3774 174 3780 3815 217 181 182 3782 3783 
3784 3823 3788 189 3791 3792 3794 3795 3796 
3835 3798 3800 3801 3808 3843 3806 3807 3812 
3847 210 3853 3811 3816 3851 257 214 3820 
3855 3821 221 218 3819 3824 261 3859 3825 
3827 3826 3828 3831 3832 233 3834 3836 3875 
3837 3804 3838 3839 3840 3842 3845 3848 3841 
3844 246 3889 3852 3887 3850 3856 3893 3854 
254 3860 3895 301 258 262 3863 3864 3899 
3865 3867 3868 270 3870 3871 3872 3911 3909 
3913 3874 3876 317 3877 3879 3880 3919 3882 
3883 3888 3925 3884 3929 3892 3927 290 3890 
3891 3896 3931 297 294 3900 3935 3939 302 
341 3898 298 3903 3904 345 3906 305 3907 
3908 310 3912 314 3915 3914 3916 3955 318 
3918 3920 3959 3922 3923 3928 3963 3969 3932 
3967 330 333 3930 3936 3971 377 3940 3975 
342 338 3938 3942 3943 3941 3944 3983 346 
3985 3947 3948 3987 385 3951 3952 353 3953 
3956 3993 3958 3961 3921 3924 3960 3605 3601 
3968 3964 366 9 3966 3972 3973 3611 3976 
3977 3974 17 3615 3980 21 382 3982 378 
3979 3984 25 386 3986 3988 29 3989 3991 
3631 3629 3992 3994 3995 3635 3996 37 3998 
3639 3999 3997 4000 
type 1 4000 int
1 1 1 1 1 1 1 1 1 
1 1 1 1 1 1 1 1 1 
1 1 1 1 1 1 1 1 1 
1 1 1 1 1 1 1 1 1 
1 1 1 1 1 1 1 1 1 
1 1 1 1 1 1 1 1 1 
1 1 1 1 1 1 1 1 1 
1 1 1 1 1 1 1 1 1 
1 1 1 1 1 1 1 1 1 
1 1 1 1 1 1 1 1 1 
1 1 1 1 1 1 1 1 1 
1 1 1 1 1 1 1 1 1 
1 1 1 1 1 1 1 1 1 
1 1 1 1 1 1 1 1 1 
1 1 1 1 1 1 1 1 1 
1 1 1 1 1 1 1 1 1 
1 1 1 1 1 1 1 1 1 
1 1 1 1 1 1 1 1 1 
1 1 1 1 1 1 1 1 1 
1 1 1 1 1 1 1 1 1 
1 1 1 1 1 1 1 1 1 
1 1 1 1 1 1 1 1 1 
1 1 1 1 1 1 1 1 1 
1 1 1 1 1 1 1 1 1 
1 1 1 1 1 1 1 1 1 
1 1 1 1 1 1 1 1 1 
1 1 1 1 1 1 1 1 1 
1 1 1 1 1 1 1 1 1 
1 1 1 1 1 1 1 1 1 
1 1 1 1 1 1 1 1 1 
1 1 1 1 1 1 1 1 1 