# vtk DataFile Version 4.0
Generated by LAMMPS
ASCII
DATASET POLYDATA
POINTS 4000 float
0.96753 1.55728 1.68474 4.83608 1.7185 1.6606 2.68898 3.70389 1.56948 
2.8347 1.50905 3.68269 4.82828 3.63516 3.76568 0.861451 3.70553 3.6719 
1.00872 3.63466 -0.492868 2.86537 1.57685 -0.439085 8.68441 1.70317 1.43478 
6.66843 3.74408 1.51763 6.71428 1.62568 3.57965 8.63769 3.75443 3.55085 
8.80281 -0.252456 3.55204 12.5429 1.45816 1.50066 10.7025 3.64339 1.53433 
10.6053 1.56917 3.5374 12.5923 3.59282 3.7413 10.6335 1.67556 -0.585666 
12.6597 3.59708 -0.404621 16.5688 1.43579 1.74375 14.6838 3.55729 1.63291 
14.4325 1.59446 3.56985 16.4253 3.51093 3.59828 16.4851 -0.518792 3.65995 
14.533 -0.494894 1.80026 16.4726 -0.578736 -0.311994 14.5064 1.45071 -0.377982 
20.4033 1.74661 1.6349 18.3447 3.76544 1.4818 22.3244 3.81943 1.59343 
18.4079 1.54685 3.68214 22.255 1.70148 3.76198 20.3511 3.83269 3.62121 
20.2426 -0.425766 3.69732 18.4018 -0.568496 1.65555 22.1455 -0.472911 1.50334 
22.291 1.63274 -0.277173 18.4861 1.55818 -0.446071 24.1572 1.66019 1.64407 
26.0987 3.71658 1.65935 26.1814 1.7582 3.65663 24.1843 3.83875 3.71515 
24.0438 -0.483503 3.4371 26.1101 1.65806 -0.565025 28.1674 1.71327 1.54216 
30.0379 3.87074 1.55301 29.8843 1.74317 3.44309 28.1691 3.79428 3.64934 
30.0818 -0.514624 1.47362 29.9938 1.77224 -0.635081 28.0618 -0.52627 -0.620351 
31.879 1.62041 1.46686 33.6082 3.74436 1.3451 33.7213 1.59991 3.5417 
31.9211 3.72582 3.55751 31.8271 3.78314 -0.748718 33.7875 -0.462396 1.30747 
31.9517 -0.497229 -0.64832 39.5162 -0.386739 3.57455 35.6442 1.62821 1.68056 
37.7372 3.64133 1.56639 37.51 1.71731 3.62471 35.7257 3.64744 3.56983 
35.6477 -0.661179 3.55994 37.7368 1.61973 -0.568217 4.60571 5.77624 1.4863 
2.95776 7.81317 1.57874 2.77964 5.79534 3.57633 4.8309 7.725 3.51484 
4.87014 7.77078 -0.391044 2.90408 5.75221 -0.763434 0.824389 5.89126 1.43704 
8.63792 5.824 1.60096 6.66035 7.81507 1.63354 6.76906 5.86689 3.81225 
8.71607 7.80636 3.80481 6.64919 5.6682 -0.443946 8.76799 7.6825 -0.404177 
12.6135 5.72182 1.39132 10.7387 7.82893 1.73889 10.5639 5.73532 3.66929 
12.511 7.78543 3.67535 12.5926 7.81365 -0.394752 10.6682 5.77639 -0.511738 
16.3467 5.70269 1.68859 14.4301 7.89141 1.78719 14.4617 5.66965 3.72612 
16.3053 7.72971 3.76773 14.7062 5.63878 -0.423837 16.2238 7.91047 -0.23234 
20.2555 5.77611 1.76637 18.2679 7.91135 1.60959 22.1443 7.8156 1.67905 
18.3348 5.74117 3.72754 22.1671 5.71272 3.7414 20.107 7.9182 3.83797 
22.375 5.66295 -0.366149 24.2647 5.74277 1.6263 26.0767 7.93837 1.45091 
26.2346 5.87658 3.55241 24.2324 7.82369 3.87007 24.2041 7.89797 -0.543624 
28.0721 5.76809 1.61247 30.2129 7.92377 1.61338 30.0772 5.89785 3.7455 
28.0003 7.79123 3.60258 29.9755 5.85926 -0.579 31.8533 5.70763 1.35737 
33.9462 7.7249 1.61797 33.9183 5.6718 3.62022 31.9311 7.95312 3.7129 
39.6639 8.00978 3.51709 35.8293 5.64085 1.60774 37.7204 7.80369 1.5981 
37.5711 5.87393 3.6514 35.6996 7.77144 3.62921 37.7502 5.7651 -0.6555 
4.83137 9.9205 1.66182 2.77493 12.1186 1.59211 2.93596 9.98937 3.44938 
4.86076 12.033 3.67021 0.962391 9.81692 1.47719 4.90615 12.0676 -0.514891 
0.900687 11.8811 3.7563 0.755995 11.8765 -0.440199 8.70675 9.72583 1.66343 
6.79546 11.8722 1.64164 6.83249 9.83208 3.81876 8.61299 11.9768 3.56582 
8.64119 11.936 -0.420426 12.6142 9.89278 1.62638 10.6903 11.8458 1.5131 
10.558 9.99335 3.83189 12.4738 12.0718 3.67734 10.6325 9.71833 -0.277725 
16.3729 9.84312 1.74257 14.3863 11.9135 1.71936 16.3877 11.9928 -0.291673 
14.2413 9.98055 3.83302 16.373 11.9553 3.84198 14.5569 10.0273 -0.46137 
20.2354 9.88774 1.50392 18.1184 12.0074 1.82131 22.3068 11.7476 1.59118 
18.3441 10.0386 3.74194 22.1625 9.74959 3.85775 20.2227 11.9875 3.72154 
24.1653 9.77036 1.6066 26.2387 12.0383 1.7388 26.2819 9.99247 3.63171 
24.2199 11.9698 3.61281 30.1134 10.0038 -0.429512 28.2378 9.99681 1.55711 
30.0927 12.0984 1.45974 29.9083 9.97445 3.61234 28.1587 12.1414 3.64534 
28.099 11.9603 -0.385557 32.0979 9.94715 1.71714 33.7671 12.1187 1.37807 
33.8607 9.97971 3.65519 31.8306 12.0891 3.80059 35.6684 9.88583 1.48958 
37.5953 12.0306 1.76945 37.4026 9.93412 3.65093 35.5942 12.0471 3.55504 
4.80199 13.935 1.51249 2.6635 16.0662 1.59058 2.7861 13.9124 3.65379 
4.81528 16.0231 3.65907 4.85298 16.0497 -0.503811 0.702742 13.9587 1.53629 
8.71634 14.0102 1.65683 6.72118 15.9647 1.71145 6.68532 13.9889 3.66692 
8.7898 16.1033 3.71128 6.75416 14.0374 -0.53464 8.63688 16.1272 -0.456581 
8.66515 18.1629 1.50787 12.49 13.9045 1.59214 10.6219 16.0115 1.52159 
12.5926 16.0803 -0.471614 10.5879 14.0461 3.76721 12.5654 16.2115 3.81537 
16.3447 14.0253 1.6064 14.2969 16.1518 1.6951 14.4351 14.0694 3.74411 
16.4736 16.1358 3.85793 20.0797 13.9369 1.59054 18.2991 15.9949 1.5655 
22.2318 15.7368 1.68071 18.2174 14.0375 3.77047 22.22 13.8088 3.62581 
20.1631 15.9296 3.72453 20.1629 16.0634 -0.494144 24.0776 13.8592 1.55176 
25.8956 15.9674 1.62514 26.1714 14.2399 3.64159 24.0539 16.0665 3.67766 
23.9522 15.9001 -0.429124 28.1893 14.1141 1.63985 27.9504 16.031 -0.462935 
29.9251 16.3908 1.54833 30.1017 14.2937 3.55281 27.7362 16.3022 3.5636 
30.0034 14.0788 -0.557755 31.9222 14.082 1.54221 33.7263 16.0858 1.56795 
33.7393 14.0961 3.49891 31.9668 16.2317 3.55788 33.8328 14.2684 -0.541464 
31.8786 16.2012 -0.521629 39.5331 16.2452 3.83363 35.6429 14.0303 1.56595 
37.8305 16.1782 1.57262 37.5026 14.0352 3.63184 35.4854 16.195 3.71749 
4.8514 18.1942 1.52376 2.61259 20.3637 1.55531 4.85847 22.3539 1.59169 
2.82451 18.2956 3.59807 0.756216 20.2429 3.69363 2.86272 22.2896 3.56896 
4.68333 20.1565 3.50749 0.983993 18.1592 1.56973 2.8371 22.2653 -0.372702 
0.619063 22.275 1.60259 6.72754 20.3938 1.57843 8.65219 22.4305 1.65922 
6.75497 18.1357 3.7091 6.68384 22.3407 3.69594 8.62014 20.1682 3.48777 
6.73143 18.317 -0.510406 8.79421 20.2962 -0.547819 12.6347 18.2475 1.49838 
10.4909 20.2145 1.5358 12.6402 22.2379 1.5937 10.7001 18.2388 3.67808 
10.6781 22.1878 3.61545 12.6137 20.1799 3.68263 10.6088 22.4334 -0.530389 
16.381 17.9454 1.5039 14.6123 20.225 1.4023 16.3894 22.1883 1.67338 
14.5592 18.2333 3.68883 14.3338 22.2499 3.73217 16.4762 20.4116 3.73967 
14.5371 18.1937 -0.519561 14.5421 22.2719 -0.606106 20.3715 18.0994 1.6155 
18.3244 20.3227 1.56094 22.299 20.297 1.5734 20.304 22.3637 1.80674 
18.1991 18.4054 3.70819 22.1847 17.99 3.63874 18.2111 22.3705 3.78262 
20.3696 20.0151 3.50406 22.1397 22.1931 3.73355 18.4828 22.4181 -0.514877 
20.5175 20.1624 -0.462821 23.9978 18.0567 1.61673 25.835 20.1291 1.37214 
24.0297 22.353 1.4064 25.8701 18.1916 3.67789 24.0498 20.2713 3.61063 
25.9241 22.3107 3.63908 23.9886 20.2817 -0.453653 27.8417 18.1462 1.40395 
29.8935 22.3345 -0.445922 29.8527 20.3439 1.6711 27.8968 22.1983 1.54151 
29.9279 18.1392 3.63078 27.9039 20.2584 3.6805 29.8191 22.3102 3.89071 
28.0459 20.3716 -0.573604 29.8495 18.2389 -0.501121 31.8522 18.2846 1.4747 
33.6558 20.3781 1.48272 31.697 22.4027 1.74103 33.6473 18.357 3.68658 
31.9229 20.4295 3.73832 33.8718 22.4772 3.77583 33.7145 22.0482 -0.570428 
33.9635 18.3043 -0.662304 31.7881 20.1709 -0.602271 35.6163 18.2432 1.59082 
37.673 22.2707 -0.622869 37.825 20.097 1.52119 35.7828 22.3356 1.49347 
37.6485 18.0813 3.8349 35.6612 20.3485 3.56855 37.5302 22.3822 3.69254 
35.9314 20.2285 -0.437486 2.80516 24.2884 1.69348 4.57766 26.4835 1.6811 
2.96718 26.4503 3.86413 4.8513 24.5179 3.72283 4.80566 24.4069 -0.545577 
3.04532 26.3966 -0.494063 6.80686 24.422 1.80833 8.66416 26.6481 1.51656 
6.69555 26.6902 3.53167 8.8811 24.4835 3.58595 6.63419 26.5415 -0.410783 
8.52743 24.4581 -0.364479 10.5494 26.5041 -0.488418 10.6578 24.2506 1.50623 
12.4806 26.3728 1.46612 10.7539 26.4792 3.56517 12.5505 24.4033 3.53864 
12.6972 24.6016 -0.475382 14.6974 24.3351 1.5328 16.544 26.5202 1.47273 
14.425 26.5118 3.50704 16.3121 24.4525 3.65088 14.5882 26.4721 -0.47096 
18.3526 24.4509 1.56143 22.213 24.3633 1.59658 20.4093 26.4256 1.69229 
18.2073 26.5315 3.588 20.0983 24.3039 3.71948 22.2313 26.4012 3.75316 
25.9517 24.1839 1.59119 24.1081 26.3217 1.5565 24.1214 24.2793 3.69362 
26.1197 26.3998 3.80256 26.116 26.4211 -0.316859 29.8096 24.4404 1.75827 
27.7951 26.3499 1.72397 27.8875 24.371 3.69814 30.0543 26.3919 3.76959 
29.9704 26.4877 -0.30505 27.9941 24.4202 -0.459901 33.7564 24.368 1.66207 
31.8862 26.4218 1.80543 31.8844 24.3869 3.86199 33.8298 26.3714 3.73214 
31.6934 24.3874 -0.313944 33.6589 26.4487 -0.437522 39.7212 26.423 1.59143 
39.6279 24.2848 3.76485 37.7542 24.4477 1.51969 35.6829 26.4968 1.68513 
35.7903 24.3518 3.68337 37.6309 26.455 3.69646 35.5219 24.3953 -0.297587 
37.5818 26.3823 -0.534674 2.89611 28.6119 1.61656 4.67279 30.6326 1.46208 
3.02565 30.6991 3.68248 4.61681 28.5811 3.87032 4.76496 28.4646 -0.437629 
6.63035 28.761 1.65091 8.77059 30.6725 1.49877 6.65037 30.7143 3.50849 
8.67088 28.5766 3.67385 8.66371 28.6658 -0.454382 6.6612 30.5723 -0.451669 
10.6322 28.6315 1.44334 12.6751 30.4834 1.50477 10.5633 30.7122 3.59025 
12.4597 28.5781 3.69119 14.4787 28.4169 1.51618 16.2402 30.7505 1.67779 
14.5113 30.7006 3.73677 16.3509 28.5858 3.59757 14.4844 30.6242 -0.641712 
18.2138 28.6753 1.63778 22.2483 28.4676 1.70435 20.344 30.6261 1.51738 
18.3034 30.4755 3.79184 20.2597 28.6426 3.78803 22.1042 30.626 3.86278 
22.1933 30.5486 -0.611281 18.3026 30.6837 -0.545643 26.0506 28.4929 1.58355 
24.0433 30.5029 1.78587 24.0906 28.4575 3.70686 25.9888 30.4454 3.74433 
25.9472 30.5283 -0.356492 24.1862 28.5157 -0.408066 29.9787 28.5639 1.67212 
27.8829 30.5501 1.71937 28.0236 28.5318 3.70481 29.9435 30.4791 3.72642 
29.9554 30.5486 -0.260601 31.7916 28.5064 -0.380293 33.6041 28.4251 1.58455 
31.7926 30.7108 1.61566 31.8913 28.5065 3.77071 33.7448 30.5658 3.5877 
33.7336 30.5906 -0.514195 39.6069 30.5487 1.61666 39.4435 28.466 3.88556 
37.6796 28.624 1.54232 35.6834 30.5139 1.3945 35.7929 28.5452 3.51445 
37.5574 30.5767 3.58285 37.7265 30.3514 -0.429927 35.651 28.3775 -0.431007 
2.87946 32.6538 1.49115 4.57505 34.7346 1.6158 2.89652 34.6721 3.70628 
[...]
POINT_DATA 4000
FIELD FieldData 6
id 1 4000 int
4 8 43 402 445 441 41 2 12 
47 406 449 409 16 51 410 453 10 
53 20 55 414 457 417 15 17 14 
24 59 63 418 422 461 421 19 23 
22 18 28 67 426 465 425 26 32 
71 430 469 31 30 29 36 75 434 
473 73 35 33 401 40 79 438 477 
437 38 48 83 442 485 85 42 44 
52 87 446 489 46 89 56 91 450 
493 93 50 60 95 454 497 54 97 
64 99 103 458 462 501 62 68 107 
466 505 105 72 111 470 509 70 76 
115 474 513 481 80 119 478 517 78 
88 123 482 525 84 125 521 121 92 
127 486 529 129 96 131 490 533 90 
100 135 137 494 537 94 104 139 143 
498 502 541 108 147 506 545 110 112 
151 510 549 149 116 155 514 553 120 
159 518 557 128 163 522 565 165 124 
132 167 526 569 126 169 172 136 171 
173 530 573 140 175 534 577 144 179 
183 538 542 581 181 148 187 546 585 
185 152 189 191 550 589 150 156 195 
554 593 154 193 561 160 199 558 597 
168 203 208 562 601 602 605 164 202 
204 207 212 566 606 609 166 209 176 
211 216 570 610 613 210 180 215 220 
574 614 617 174 214 184 219 223 224 
578 582 618 621 622 218 221 188 227 
228 586 625 626 225 192 230 231 232 
590 629 630 229 190 196 235 236 594 
633 634 234 194 233 200 238 239 240 
598 637 638 237 243 248 642 645 245 
242 247 252 646 649 246 249 250 251 
256 650 653 253 255 260 654 657 254 
259 263 264 658 661 662 267 268 665 
666 266 271 272 669 670 270 269 275 
276 673 674 273 274 244 641 279 280 
677 678 277 278 283 288 682 685 285 
287 292 686 689 289 286 291 296 690 
693 295 300 694 697 294 299 303 304 
698 701 702 302 298 307 308 705 706 
306 305 311 312 709 710 310 313 315 
316 713 714 314 284 681 319 320 717 
718 318 317 323 328 722 725 324 322 
327 332 726 729 326 331 336 730 733 
333 335 340 734 737 334 337 339 343 
344 738 741 742 347 348 745 746 345 
351 352 749 750 350 355 356 753 754 
721 359 360 757 758 357 321 3 5 
405 363 368 762 765 365 364 362 7 
367 372 766 769 366 11 413 371 376 
770 773 375 380 774 777 377 374 379 
383 384 778 781 782 382 21 27 387 
388 785 786 429 391 392 789 790 389 
433 395 396 793 794 393 394 361 761 
39 399 400 797 798 404 408 443 802 
845 841 412 447 806 849 407 411 416 
451 810 813 853 420 455 814 857 424 
459 463 818 821 822 861 423 428 467 
825 826 865 427 432 471 830 869 436 
475 834 873 440 479 838 877 837 439 
448 483 842 885 881 452 487 846 889 
456 491 850 893 460 495 854 897 464 
499 503 858 862 901 468 507 866 905 
472 511 870 909 476 515 874 913 444 
480 519 878 917 488 523 882 925 484 
921 492 527 886 929 496 531 890 933 
500 535 894 937 504 539 543 898 902 
941 508 547 906 945 512 551 910 949 
516 555 914 953 520 559 918 957 528 
563 922 965 524 532 567 926 969 536 
571 930 973 540 575 934 977 544 579 
583 938 942 981 548 587 946 985 552 
591 950 989 556 595 954 993 961 560 
599 958 997 568 603 608 962 1005 604 
1001 1002 572 607 612 966 1009 1006 576 
611 616 970 1010 1013 580 615 620 974 
1017 1014 584 619 623 624 978 982 1018 
1021 1022 986 588 627 628 1025 1026 592 
631 632 990 1029 1030 596 635 636 994 
1033 1034 564 600 639 640 998 1037 1038 
643 648 1042 1045 644 647 652 1046 1049 
651 656 1050 1053 655 660 1054 1057 659 
663 664 1058 1061 1062 667 668 1065 1066 
671 672 1069 1070 675 676 1073 1074 1041 
679 680 1077 1078 683 688 1082 1085 1081 
687 692 1086 1089 691 696 1090 1093 695 
700 1094 1097 699 704 1098 1101 1102 703 
707 708 1105 1106 711 712 1109 1110 715 
716 1113 1114 684 719 720 1117 1118 723 
728 1122 1125 724 727 732 1126 1129 731 
736 1130 1133 735 740 1134 1137 739 743 
744 1138 1141 1142 747 748 1145 1146 751 
752 1149 1150 755 756 1153 1154 1121 759 
760 1157 1158 403 801 805 763 768 1162 
1165 1161 809 767 772 1166 1169 771 776 
1170 1173 415 817 775 780 1174 1177 419 
779 783 784 1178 1181 1182 787 788 1185 
1186 829 431 791 792 1189 1190 833 435 
795 796 1193 1194 764 799 800 1197 1198 
808 843 1202 1245 804 812 847 1206 1249 
1209 816 851 1210 1253 820 855 1214 1257 
824 859 863 1218 1222 1261 819 828 867 
1226 1265 827 1225 832 871 1230 1269 1229 
836 875 1234 1273 1241 840 879 1238 1277 
839 1237 844 848 883 1242 1285 1281 852 
887 1246 1289 856 891 1250 1293 860 895 
1254 1297 864 899 903 1258 1262 1301 868 
907 1266 1305 872 911 1270 1309 876 915 
1274 1313 880 919 1278 1317 888 923 1282 
1325 1321 892 927 1286 1329 896 931 1290 
1333 900 935 1294 1337 904 939 1298 1302 
1341 943 908 947 1306 1345 912 951 1310 
1349 916 955 1314 1353 884 920 959 1318 
1357 928 963 1322 1365 924 932 967 1326 
1369 936 971 1330 1373 1370 940 975 1334 
1377 1338 944 979 983 1342 1381 948 987 
1346 1385 952 991 1350 1389 956 995 1354 
1393 996 1361 960 999 1358 1397 968 1003 
1008 1362 1402 1405 1004 972 1007 1012 1366 
1409 1406 976 1011 1016 1410 1413 980 1015 
1020 1374 1414 1417 984 1019 1023 1024 1378 
1382 1418 1421 1422 988 1027 1028 1386 1425 
1426 992 1031 1032 1390 1429 1430 1035 1036 
1394 1433 1434 1401 964 1000 1039 1040 1398 
1437 1438 1043 1048 1442 1445 1044 1441 1047 
1052 1446 1449 1051 1056 1450 1453 1055 1060 
1454 1457 1059 1063 1064 1458 1461 1462 1067 
1068 1465 1466 1071 1072 1469 1470 1075 1076 
1473 1474 1079 1080 1477 1478 1083 1088 1482 
1485 1084 1087 1092 1486 1489 1091 1096 1490 
1493 1095 1100 1494 1497 1099 1103 1104 1498 
1501 1502 1107 1108 1505 1506 1111 1112 1509 
1510 1115 1116 1513 1514 1481 1119 1120 1517 
1518 1123 1124 1128 1522 1525 1127 1132 1526 
1529 1131 1136 1530 1533 1135 1140 1534 1537 
1139 1143 1144 1538 1541 1542 1147 1148 1545 
1546 1151 1152 1549 1550 1155 1156 1553 1554 
1521 1159 1160 1557 1558 803 1201 1205 1163 
1168 1562 1565 1164 1561 807 1167 1172 1566 
1569 1213 811 1171 1176 1570 1573 815 1217 
1175 1180 1574 1577 1221 823 1179 1183 1184 
1578 1581 1582 1187 1188 1585 1586 831 1191 
1192 1589 1590 835 1233 1195 1196 1593 1594 
1199 1200 1597 1598 1208 1243 1602 1645 1204 
1601 1212 1247 1606 1649 1609 1207 1216 1251 
1610 1653 1220 1255 1614 1657 1617 1224 1259 
1263 1618 1622 1661 1621 1219 1228 1267 1626 
1665 1227 1232 1271 1630 1669 1629 1236 1275 
1634 1673 1235 1633 1641 1240 1279 1638 1677 
1239 1637 1244 1248 1283 1642 1685 1681 1252 
1287 1646 1689 1256 1291 1650 1693 1260 1295 
1654 1697 1299 1264 1303 1658 1662 1701 1268 
1307 1666 1705 1272 1311 1670 1709 1276 1315 
1674 1713 1280 1319 1678 1717 1288 1323 1682 
1725 1284 1292 1327 1686 1729 1296 1331 1690 
1733 1731 1300 1335 1694 1737 1304 1339 1343 
1698 1702 1741 1308 1347 1706 1745 1312 1351 
1710 1749 1316 1355 1714 1753 1721 1320 1359 
1718 1757 1328 1363 1722 1765 1332 1367 1726 
1769 1336 1371 1730 1773 1340 1375 1734 1777 
1738 1344 1379 1383 1742 1781 1348 1387 1746 
1785 1352 1391 1750 1789 1356 1395 1754 1793 
1761 1324 1360 1399 1758 1797 1368 1403 1408 
1762 1802 1805 1364 1801 1372 1407 1412 1766 
1806 1809 1376 1411 1416 1770 1810 1813 1380 
1415 1420 1774 1814 1817 1384 1419 1423 1424 
1778 1782 1818 1821 1822 1824 1388 1427 1428 
1786 1825 1826 1392 1431 1432 1790 1829 1830 
1396 1435 1436 1794 1833 1834 1404 1400 1439 
1440 1798 1837 1838 1443 1448 1842 1845 1444 
1447 1452 1846 1849 1451 1456 1850 1853 1455 
1460 1854 1857 1459 1463 1464 1858 1861 1862 
1467 1468 1865 1866 1471 1472 1869 1870 1475 
1476 1873 1874 1841 1479 1480 1877 1878 1483 
1488 1882 1885 1484 1487 1492 1886 1889 1491 
1496 1890 1893 1495 1500 1894 1897 1499 1503 
1504 1898 1901 1902 1507 1508 1905 1906 1511 
1512 1909 1910 1515 1516 1913 1914 1881 1519 
1520 1917 1918 1919 1523 1528 1922 1925 1527 
1532 1926 1929 1531 1536 1930 1933 1535 1540 
1934 1937 1539 1543 1544 1938 1941 1942 1547 
1548 1945 1946 1551 1552 1949 1950 1555 1556 
1953 1954 1921 1524 1559 1560 1957 1958 1203 
1605 1563 1564 1568 1962 1965 1567 1572 1966 
1969 1613 1211 1571 1576 1970 1973 1215 1575 
1580 1974 1977 1223 1579 1584 1978 1981 1982 
1583 1625 1587 1588 1985 1986 1231 1591 1592 
1989 1990 1595 1596 1993 1994 1961 1599 1600 
1997 1998 1608 1643 2002 2004 2008 2043 2045 
2041 1612 1647 2006 2012 2047 2049 1607 2007 
1616 1651 2010 2016 2051 2053 2011 1620 1655 
2014 2020 2055 2057 2019 1624 1659 1663 2018 
2022 2023 2024 2059 2061 2063 2021 1628 1667 
2025 2026 2028 2065 2067 1627 2027 1632 1671 
2030 2032 2069 2071 1631 1636 1675 2034 2036 
2073 2075 2035 1640 1604 1679 2038 2040 2077 
2079 1639 1648 1683 2042 2048 2083 2085 2044 
1644 1652 1687 2046 2052 2087 2089 1656 1691 
2050 2056 2091 2093 1660 1695 2054 2060 2095 
2097 1699 2058 1664 1703 2062 2064 2099 2101 
2103 1668 1707 2066 2068 2105 2107 1672 1711 
2070 2072 2109 2111 1676 1715 2074 2076 2113 
2115 2081 1680 1719 2078 2080 2117 2119 1723 
1688 2082 2084 2088 2123 2125 2121 1692 1727 
2086 2092 2127 2129 1696 2090 2096 2131 2133 
1700 1735 2094 2100 2135 2137 1739 2098 1704 
1743 2102 2104 2139 2141 2143 1708 1747 2106 
2108 2145 2147 1712 1751 2110 2112 2149 2151 
1716 1755 2114 2116 2153 2155 1684 1720 1759 
2118 2120 2157 2159 1728 1763 2122 2128 2163 
2165 2161 2124 1724 1732 1767 2126 2167 2169 
2132 1736 1771 2130 2136 2171 2173 1740 1775 
2134 2140 2175 2177 1783 1744 1779 2138 2142 
2144 2181 2183 2179 1748 1787 2146 2148 2185 
2187 1752 1791 2150 2152 2189 2191 1756 1795 
2154 2156 2193 2195 1760 1799 2158 2160 2197 
2199 1768 1803 1808 2162 2168 2202 2203 2205 
2208 1764 1772 1807 1812 2166 2172 2206 2209 
2212 2207 1776 1811 1816 2170 2176 2210 2211 
2213 2216 1780 1815 1820 2174 2180 2214 2215 
2217 2220 1784 1819 1823 2178 2182 2184 2218 
2219 2221 2223 2222 1788 1827 1828 2186 2188 
2225 2226 2227 2228 1792 1831 1832 2190 2192 
2229 2230 2231 2232 1796 1835 1836 2194 2196 
2233 2234 2235 2236 2201 1804 2204 2164 1800 
1839 1840 2198 2200 2237 2238 2239 2240 1843 
1848 2242 2243 2245 2248 2244 1847 1852 2246 
2247 2249 2252 1851 1856 2250 2251 2253 2256 
1855 1860 2254 2255 2257 2260 2224 1859 1863 
1864 2258 2259 2261 2262 2264 2263 1867 1868 
2265 2266 2267 2268 1871 1872 2269 2270 2271 
2272 1875 1876 2273 2274 2275 2276 2241 1844 
1879 1880 2277 2278 2279 2280 1883 1888 2282 
2283 2285 2288 1884 1887 1892 2286 2287 2289 
2292 1891 1896 2290 2293 2291 2296 1895 1900 
2294 2295 2297 2300 1899 1903 1904 2298 2299 
2301 2302 2304 2303 1907 1908 2305 2306 2308 
2307 1911 1912 2309 2310 2312 2311 1915 1916 
2313 2314 2315 2316 2284 2281 1920 2317 2318 
2319 2320 1923 1928 2322 2323 2325 2328 1924 
2321 1932 1927 2326 2327 2329 2332 1931 1936 
2330 2331 2333 2336 1940 1935 2334 2335 2337 
2340 1939 1943 1944 2338 2339 2341 2342 2343 
2344 1947 1948 2345 2346 2347 2348 1951 1952 
2349 2350 2351 2352 1955 1956 2353 2354 2356 
2355 2324 1959 1960 2357 2358 2359 2360 2005 
1603 2003 1963 1968 2362 2363 2365 2368 2361 
2009 1967 1972 2366 2367 2369 2372 1611 2013 
1971 1976 2370 2371 2373 2376 1615 2017 2015 
1975 1980 2374 2375 2377 2380 1623 1619 1979 
1983 1984 2378 2379 2381 2382 2383 2384 1987 
1988 2385 2386 2387 2388 2031 2029 1991 1992 
2389 2390 2391 2392 2033 1635 1995 1996 2393 
2394 2395 2396 2001 2039 1964 2364 2037 1999 
2000 2397 2398 2399 2400 2402 2408 2443 2445 
2405 2406 2412 2447 2449 2410 2416 2451 2453 
2414 2420 2455 2457 2417 2418 2422 2424 2459 
2461 2463 2421 2426 2428 2465 2467 2427 2430 
2432 2469 2471 2429 2434 2436 2473 2475 2441 
2404 2438 2440 2477 2479 2442 2448 2483 2485 
2444 2481 2446 2452 2487 2489 2450 2456 2491 
2493 2454 2460 2495 2497 2458 2462 2464 2499 
2501 2503 2466 2468 2505 2507 2470 2472 2509 
2511 2474 2476 2513 2515 2478 2480 2517 2519 
2482 2488 2523 2525 2521 2484 2486 2492 2527 
2529 2490 2496 2531 2533 2494 2500 2535 2537 
2498 2502 2504 2539 2541 2543 2506 2508 2545 
2547 2510 2512 2549 2551 2514 2516 2553 2555 
2518 2520 2557 2559 2522 2528 2563 2565 2561 
2524 2526 2532 2567 2569 2530 2536 2571 2573 
2534 2540 2575 2577 2538 2542 2544 2579 2581 
2583 2546 2548 2585 2587 2550 2552 2589 2591 
2554 2556 2593 2595 2558 2560 2597 2599 2562 
2568 2602 2603 2605 2608 2564 2566 2572 2606 
2607 2609 2612 2570 2576 2610 2611 2613 2616 
2574 2580 2614 2615 2617 2620 2578 2582 2584 
2618 2619 2621 2622 2623 2624 2586 2588 2625 
2626 2627 2628 2590 2592 2629 2630 2631 2632 
2594 2596 2633 2634 2635 2636 2601 2604 2598 
2600 2637 2638 2639 2640 2642 2643 2645 2648 
2646 2647 2649 2652 2650 2651 2653 2656 2654 
2655 2657 2660 2658 2659 2661 2662 2663 2664 
2665 2666 2667 2668 2669 2670 2671 2672 2673 
2674 2675 2676 2641 2644 2677 2678 2679 2680 
2682 2683 2685 2688 2686 2687 2689 2692 2690 
2691 2693 2696 2694 2695 2697 2700 2698 2699 
2701 2703 2704 2702 2705 2706 2707 2708 2709 
2710 2711 2712 2713 2714 2715 2716 2684 2681 
2717 2718 2719 2720 2722 2723 2725 2728 2726 
2727 2729 2732 2730 2731 2733 2736 2734 2735 
2737 2740 2738 2739 2741 2742 2743 2744 2745 
2746 2747 2748 2749 2750 2751 2752 2753 2754 
2755 2756 2724 2721 2757 2758 2759 2760 2403 
2401 2762 2763 2765 2768 2761 2764 2409 2407 
2766 2767 2769 2772 2413 2411 2770 2771 2773 
2776 2415 2774 2775 2777 2780 2423 2419 2778 
2779 2781 2782 2783 2784 2425 2785 2786 2787 
2788 2431 2789 2790 2791 2792 2433 2435 2793 
2794 2795 2796 2439 2437 2797 2798 2799 2800 
2802 2808 2841 2843 2845 2806 2812 2847 2849 
2810 2816 2851 2853 2811 2814 2820 2855 2857 
2815 2818 2822 2824 2859 2861 2863 2821 2819 
2825 2826 2828 2865 2867 2830 2832 2869 2871 
2831 2829 2834 2836 2873 2875 2804 2838 2840 
2877 2879 2839 2842 2848 2883 2885 2846 2852 
2887 2889 2850 2856 2891 2893 2854 2860 2895 
2897 2858 2862 2864 2899 2901 2903 2866 2868 
2905 2907 2870 2872 2909 2911 2874 2876 2913 
2915 2844 2881 2878 2880 2917 2919 2882 2888 
2921 2923 2925 2884 2886 2892 2927 2929 2890 
2896 2931 2933 2894 2900 2935 2937 2898 2902 
2904 2939 2941 2943 2906 2908 2945 2947 2910 
2912 2949 2951 2914 2916 2953 2955 2918 2920 
2957 2959 2922 2928 2963 2965 2926 2932 2967 
2969 2930 2936 2971 2973 2934 2940 2975 2977 
2938 2942 2944 2979 2981 2983 2946 2948 2985 
2987 2950 2952 2989 2991 2990 2954 2956 2993 
2995 2924 2961 2958 2960 2997 2999 2962 2968 
3002 3003 3005 3008 3004 2966 2972 3006 3007 
3009 3012 2970 2976 3010 3011 3013 3016 2974 
2980 3015 3017 3020 3014 2978 2982 2984 3018 
3019 3021 3022 3023 3024 2986 2988 3025 3027 
3028 3026 2992 3029 3030 3031 3032 2994 2996 
3033 3034 3035 3036 2964 3001 2998 3000 3037 
3038 3039 3040 3042 3043 3045 3048 3046 3047 
3049 3052 3050 3051 3053 3056 3054 3055 3057 
3060 3058 3059 3061 3062 3063 3064 3065 3066 
3067 3068 3069 3070 3071 3072 3073 3074 3075 
3076 3041 3044 3077 3078 3079 3080 3082 3083 
3085 3088 3084 3086 3087 3089 3092 3090 3091 
3093 3096 3094 3095 3097 3100 3098 3099 3101 
3102 3103 3104 3105 3106 3107 3108 3109 3110 
3111 3112 3113 3114 3115 3116 3081 3117 3118 
3119 3120 3122 3123 3125 3128 3124 3121 3126 
3127 3129 3132 3130 3131 3133 3136 3134 3135 
3137 3140 3138 3139 3141 3142 3143 3144 3145 
3146 3147 3148 3149 3150 3151 3152 3153 3154 
3155 3156 3157 3158 3159 3160 2805 2803 3162 
3163 3165 3168 3164 3161 2807 2809 3166 3167 
3169 3172 2813 3170 3171 3173 3176 2817 3174 
3175 3177 3180 2823 3178 3179 3181 3182 3183 
3184 2827 3185 3186 3187 3188 3189 3190 3191 
3192 2835 2833 3193 3194 3195 3196 2801 2837 
3197 3198 3199 3200 3202 3208 3243 3245 3241 
3203 3201 3206 3212 3247 3249 3207 3210 3216 
3251 3253 3213 3214 3220 3255 3257 3215 3218 
3222 3223 3224 3259 3261 3263 3219 3226 3227 
3228 3265 3267 3230 3232 3269 3271 3229 3234 
3236 3273 3275 3233 3235 3204 3237 3238 3240 
3277 3279 3242 3248 3283 3285 3246 3252 3287 
3289 3250 3256 3291 3293 3254 3260 3295 3297 
3258 3299 3262 3264 3301 3303 3266 3268 3305 
3307 3270 3272 3309 3311 3274 3276 3313 3315 
3281 3244 3278 3280 3317 3319 3282 3288 3323 
3325 3321 3286 3292 3327 3329 3290 3296 3331 
3333 3294 3300 3335 3337 3298 3302 3304 3339 
3341 3343 3306 3308 3345 3347 3310 3312 3349 
3351 3314 3316 3353 3355 3284 3318 3320 3357 
3359 3322 3328 3363 3365 3361 3324 3326 3332 
3367 3369 3330 3336 3371 3373 3334 3340 3375 
3377 3338 3342 3344 3379 3381 3383 3346 3348 
3385 3387 3350 3352 3389 3391 3354 3356 3393 
3395 3358 3360 3397 3399 3362 3368 3402 3403 
3405 3408 3364 3366 3372 3406 3407 3409 3412 
3370 3376 3410 3411 3413 3416 3374 3380 3414 
3415 3417 3420 3378 3382 3384 3418 3419 3421 
3422 3423 3424 3386 3388 3425 3426 3427 3428 
3390 3392 3429 3430 3431 3432 3394 3396 3433 
3434 3435 3436 3401 3404 3398 3400 3437 3438 
3439 3440 3442 3443 3445 3448 3446 3447 3449 
3452 3450 3451 3453 3456 3454 3455 3457 3460 
3458 3459 3461 3462 3463 3464 3465 3466 3467 
3468 3469 3470 3471 3472 3473 3474 3475 3476 
3441 3444 3477 3478 3479 3480 3482 3483 3485 
3488 3486 3487 3489 3492 3490 3491 3493 3496 
3494 3495 3497 3500 3498 3499 3501 3502 3503 
3504 3505 3506 3507 3508 3509 3510 3511 3512 
3513 3514 3515 3516 3481 3484 3517 3518 3519 
3520 3522 3523 3525 3528 3521 3524 3526 3527 
3529 3532 3530 3531 3533 3536 3534 3535 3537 
3540 3538 3539 3541 3542 3543 3544 3545 3546 
3547 3548 3549 3550 3551 3552 3553 3554 3555 
3556 3557 3558 3559 3560 3205 3562 3563 3565 
3568 3561 3564 3209 3566 3567 3569 3572 3211 
3570 3571 3573 3576 3217 3574 3575 3577 3580 
3221 3578 3579 3581 3582 3583 3584 3225 3585 
3586 3587 3588 3231 3589 3590 3591 3592 3593 
3594 3595 3596 3239 3597 3598 3599 3600 45 
3602 3608 3643 3645 3604 3605 3641 6 49 
3606 3612 3647 3649 9 3607 3610 3616 3651 
3653 3611 57 3614 3615 3620 3655 3657 3617 
61 3618 3622 3624 3659 3661 3663 3619 3623 
3621 65 3625 3626 3628 3665 3667 69 3630 
3632 3669 3671 3631 34 3634 3636 3673 3675 
3635 3633 77 3638 3640 3677 3679 3639 81 
3642 3648 3683 3685 3644 3646 3652 3687 3689 
3650 3656 3691 3693 3654 3660 3695 3697 58 
101 3658 3662 3664 3699 3701 3703 66 3666 
3668 3705 3707 109 3670 3672 3709 3711 74 
113 3674 3676 3713 3715 117 3681 3678 3680 
3717 3719 82 3682 3688 3723 3725 3684 3721 
86 3686 3692 3727 3729 133 3690 3696 3731 
3733 3694 3700 3735 3737 3739 141 102 98 
3698 3702 3704 3741 3743 145 106 3706 3708 
3745 3747 3710 3712 3749 3751 114 153 3714 
3716 3753 3755 118 157 3718 3720 3757 3759 
122 3722 3728 3763 3765 3726 3732 3767 3769 
130 3730 3736 3771 3773 177 134 3734 3740 
3775 3777 138 142 3738 3742 3744 3779 3781 
3783 146 3746 3748 3785 3787 3750 3752 3789 
3791 3754 3756 3793 3795 161 197 158 3761 
3724 3758 3760 3797 3799 205 162 3762 3768 
3802 3803 3805 3808 206 3772 3766 3806 3807 
3809 3812 213 170 3770 3776 3810 3811 3813 
3816 217 3774 3780 3815 3817 3820 3814 222 
178 3778 3782 3784 3818 3819 3821 3822 3823 
3824 182 186 226 3786 3788 3825 3826 3827 
3828 3790 3792 3829 3830 3831 3832 3794 3796 
3833 3834 3835 3836 201 198 3804 3764 3801 
3798 3800 3837 3838 3839 3840 3842 3843 3845 
3848 241 3846 3847 3849 3852 3850 3851 3853 
3856 257 3854 3855 3857 3860 262 261 258 
3859 3858 3861 3862 3863 3864 265 3865 3866 
3867 3868 3869 3870 3871 3872 3873 3874 3875 
3876 3844 3841 3877 3878 3879 3880 282 3882 
3883 3885 3888 3886 3887 3889 3892 290 293 
3890 3891 3893 3896 297 3894 3895 3897 3900 
301 3898 3899 3901 3902 3903 3904 3905 3906 
3907 3908 309 3909 3910 3911 3912 3913 3914 
3915 3916 3884 281 3881 3917 3918 3919 3920 
325 3922 3923 3925 3928 3921 329 3926 3927 
3929 3932 330 3930 3931 3933 3936 3934 3935 
3937 3940 342 338 341 3938 3939 3941 3942 
3943 3944 346 3945 3946 3947 3948 349 3949 
3950 3951 3952 354 353 3953 3954 3955 3956 
358 3924 3957 3958 3959 3960 1 3601 3603 
3962 3963 3965 3968 3961 369 3609 3966 3967 
3969 3972 370 13 3613 373 3970 3971 3973 
3976 3974 3975 3977 3980 378 381 3978 3979 
3981 3982 3983 3984 385 386 3627 25 3985 
3986 3987 3988 3629 390 3989 3990 3991 3992 
3993 3994 3995 3996 37 397 398 3964 3637 
3997 3998 3999 4000 
type 1 4000 int
1 1 1 1 1 1 1 1 1 
1 1 1 1 1 1 1 1 1 
1 1 1 1 1 1 1 1 1 
1 1 1 1 1 1 1 1 1 
1 1 1 1 1 1 1 1 1 
1 1 1 1 1 1 1 1 1 
1 1 1 1 1 1 1 1 1 
1 1 1 1 1 1 1 1 1 
1 1 1 1 1 1 1 1 1 
1 1 1 1 1 1 1 1 1 
1 1 1 1 1 1 1 1 1 
1 1 1 1 1 1 1 1 1 
1 1 1 1 1 1 1 1 1 
1 1 1 1 1 1 1 1 1 
1 1 1 1 1 1 1 1 1 
1 1 1 1 1 1 1 1 1 
1 1 1 1 1 1 1 1 1 
1 1 1 1 1 1 1 1 1 
1 1 1 1 1 1 1 1 1 
1 1 1 1 1 1 1 1 1 
1 1 1 1 1 1 1 1 1 
1 1 1 1 1 1 1 1 1 
1 1 1 1 1 1 1 1 1 
1 1 1 1 1 1 1 1 1 
1 1 1 1 1 1 1 1 1 
1 1 1 1 1 1 1 1 1 
1 1 1 1 1 1 1 1 1 
1 1 1 1 1 1 1 1 1 
1 1 1 1 1 1 1 1 1 
1 1 1 1 1 1 1 1 1 
1 1 1 1 1 1 1 1 1 