# vtk DataFile Version 4.0
Generated by LAMMPS
ASCII
DATASET POLYDATA
POINTS 4000 float
4.81662 -0.733441 3.78077 6.68103 -1.01598 1.47176 4.5116 -2.59869 1.61123 
6.46475 -3.08824 3.61643 4.71802 -0.545385 41.0106 6.18254 -3.16335 40.9243 
10.4785 -1.63252 1.61855 8.55885 -1.27401 3.54528 10.7289 0.515361 3.68249 
8.30336 -3.62193 1.51224 10.2034 44.5 3.6475 10.3525 0.475234 -0.615107 
12.6544 0.0589613 1.53884 14.2283 -2.3913 1.50951 12.2917 -2.02795 3.59395 
14.4008 -0.281379 3.64207 12.5825 -2.08448 40.8659 14.5399 -0.0446656 -0.61507 
16.4701 -0.740266 1.57098 18.3344 -3.2133 1.60856 18.4376 -1.19378 3.58542 
20.2674 -3.5475 3.6423 16.1456 -2.59719 3.65759 20.2264 -3.61509 40.8228 
16.0047 -2.79428 -0.471811 18.443 -1.14123 40.8624 20.3775 -1.47762 1.70491 
24.18 -2.1437 1.52823 22.1953 -1.68191 3.66013 24.323 -0.110157 3.63235 
22.5377 0.172433 1.61033 22.1793 -1.68593 41.0854 28.0884 -2.80234 1.6443 
26.2686 -0.566317 1.6194 28.3305 -0.968841 3.68283 26.1602 -2.40951 3.58482 
26.2526 -2.48323 41.1093 24.4318 -0.151279 40.9789 30.3235 -1.57898 1.64702 
32.1213 -1.67859 3.67818 30.0208 -3.3313 3.67824 30.1084 -3.41301 -0.419307 
32.453 0.387957 1.40877 32.2405 -1.80743 -0.546887 36.2308 -0.291963 1.46246 
34.2194 -1.96698 1.54629 36.007 -2.16942 3.77955 34.2298 0.0734691 3.6147 
34.4678 0.0787937 -0.505727 5.17824 1.39775 1.553 7.10255 3.16715 1.58306 
6.97825 1.02477 3.77794 5.15569 3.56294 3.72996 5.351 3.40891 40.9667 
6.97097 0.969052 40.7307 8.71395 0.621848 1.57386 9.15325 4.75852 1.49808 
10.8475 2.55713 1.34678 9.06359 2.83301 3.5006 11.1896 4.37288 3.55172 
8.96593 2.86516 40.7283 14.8236 1.69212 1.65999 13.0576 4.1376 1.4719 
12.8764 2.17036 3.55868 14.799 3.90659 3.61105 15.0204 3.81346 -0.288929 
12.727 2.21931 -0.490411 18.7015 0.699969 1.65032 16.8792 3.51011 1.48237 
18.7697 3.12701 3.78803 16.7491 1.39007 3.48585 19.1692 5.15489 1.42273 
20.4856 0.753895 40.9076 20.5454 0.660676 3.75663 20.6166 2.97097 1.45625 
23.0109 4.31093 1.37344 22.5996 2.39104 3.42598 21.0915 4.74382 3.621 
22.7731 2.33839 40.9489 21.1591 4.89449 -0.468442 24.7435 1.88328 1.57328 
26.8832 3.53181 1.69096 28.3678 1.05796 1.75691 24.9947 3.93801 3.6431 
26.3628 1.48694 3.62926 26.617 1.52872 40.9365 24.9816 3.83013 40.9931 
30.5629 0.628657 3.48938 30.6308 2.87625 1.42772 28.7183 3.1793 3.63696 
32.5826 2.39993 3.61386 32.9005 4.31094 1.46095 30.9007 4.62937 3.58453 
32.8062 2.33935 40.9356 28.7778 3.21916 -0.374172 30.8729 4.6763 -0.47323 
36.9299 3.69652 1.50552 34.5827 2.12667 1.72505 36.7153 1.63466 3.66136 
34.8492 4.14094 3.77471 34.7308 4.08763 -0.534999 7.41473 5.33024 3.72378 
5.41498 5.7074 1.68275 3.74237 7.91179 1.51407 5.57512 7.71973 3.64526 
7.5015 7.23885 1.50039 7.84746 9.31273 3.42234 11.3752 6.49841 1.36591 
9.87659 8.9629 1.44758 9.58201 6.96314 3.53477 9.35107 6.84022 -0.40626 
11.4581 8.7154 3.66979 11.5456 8.41412 -0.698989 15.253 5.76706 1.68765 
13.3778 8.15695 1.59295 13.2494 6.03673 3.63769 15.2692 7.88368 3.67486 
17.5735 7.40227 1.4677 19.6635 9.063 1.64027 17.1821 5.55764 3.69644 
19.4925 6.84816 3.60661 17.6912 9.22125 3.5844 21.3521 6.8904 1.59038 
23.5264 8.43097 1.65395 23.4142 6.30112 3.6232 21.6743 8.81363 3.71825 
21.6352 8.75948 40.9478 25.2982 5.86337 1.56381 27.1852 5.51632 3.72543 
27.5023 7.6484 1.45116 25.5856 7.85981 3.67749 26.9421 5.6606 40.9399 
25.4448 7.98404 -0.489185 31.3516 6.62716 1.53758 29.01 5.33126 1.45191 
31.3944 8.8604 3.52833 29.392 7.01889 3.7872 29.655 9.2401 1.63147 
31.5536 8.79351 -0.514817 36.9676 6.02748 3.5539 34.8774 6.2444 1.47834 
33.3384 8.51468 1.68038 33.1567 6.42097 3.77273 35.2225 8.13088 3.49781 
36.9408 5.71859 40.9652 35.1959 8.34528 -0.49714 5.90366 9.51788 1.46697 
4.47395 11.9889 1.66809 3.74096 9.90869 3.62577 6.25817 11.7786 3.8265 
3.90201 10.2444 -0.679054 8.0912 11.447 1.54642 10.2522 13.1099 1.58706 
8.35789 13.6382 3.59968 9.86931 11.0281 3.48266 11.866 10.7135 1.62587 
14.1118 12.3733 1.60229 13.5739 10.2586 3.66144 15.6755 9.82617 1.56805 
12.1849 12.6306 3.47738 15.9659 11.9096 -0.536779 15.8863 11.876 3.51465 
17.8527 11.4808 1.5648 19.8216 11.1112 3.57848 18.2611 13.6523 3.63938 
20.0766 13.2825 1.54306 18.212 13.5311 41.0863 21.8678 10.7098 1.57023 
23.7971 10.4219 3.77074 24.0355 12.259 1.6272 21.9938 12.6329 3.4046 
22.1953 12.6883 -0.379626 25.9413 9.88237 1.59656 27.9356 11.6316 1.72261 
25.9553 12.016 3.49922 27.6667 9.41437 3.65644 27.8893 9.52199 -0.355524 
26.1285 11.801 41.1475 31.79 10.8986 1.60041 30.0959 13.5082 1.6458 
29.8281 11.2189 3.6248 32.0055 13.0929 3.65405 29.9 11.37 -0.53536 
35.5732 10.3007 1.39069 33.7693 12.7815 1.5591 33.7326 10.6077 3.62984 
35.7502 12.3591 3.55653 33.6531 10.621 -0.426567 6.37679 13.8171 1.40197 
4.46126 14.2182 3.64671 4.67554 16.2614 1.52686 7.10936 17.7403 1.65152 
6.6809 15.8059 3.66917 8.59289 15.4534 1.43489 10.754 17.0093 1.53079 
10.643 15.102 3.66924 9.03475 17.4206 3.70658 12.5315 14.804 1.44206 
14.6535 16.2708 1.62849 14.287 14.357 3.67564 12.7419 16.7521 3.66747 
14.4062 14.184 41.0861 16.4336 13.7638 1.69006 18.6368 15.4766 1.49139 
18.9023 17.4017 3.34652 16.6743 15.9582 3.60559 16.8911 17.9152 1.50348 
18.7563 17.4534 40.9316 16.5582 15.6988 40.947 22.4902 14.8284 1.52403 
20.8149 17.3727 1.51973 20.5023 15.0703 3.69564 22.5528 16.9792 3.67288 
24.305 14.4083 3.7442 20.5086 15.1402 40.8606 22.7824 17.0344 41.0291 
24.6195 16.4606 1.80094 28.067 13.7613 3.76998 26.3017 13.8454 1.60816 
26.4031 16.1258 3.83156 28.3131 15.9405 1.72869 28.4968 18.0561 3.70941 
28.2345 13.6609 -0.227537 26.4288 16.02 40.8977 32.458 15.2229 1.79713 
30.5491 17.471 1.53326 32.3975 17.1648 -0.615183 30.4677 15.5027 3.79658 
32.4773 17.3571 3.78322 30.2938 15.5418 41.1474 35.8985 14.526 1.51032 
34.1863 17.084 1.51481 36.2623 16.5633 3.55868 34.2552 14.887 3.69579 
5.27306 20.2817 1.56953 7.2218 19.8823 3.5114 5.68241 22.2777 3.55009 
7.46095 21.979 1.59231 4.9977 18.3089 3.63403 7.27825 19.9003 -0.28035 
9.25159 19.3207 1.70003 11.3106 21.1702 1.53727 11.1958 18.9159 3.7608 
9.55027 21.3974 3.61711 9.37044 21.3381 -0.247851 13.0335 18.7288 1.57815 
15.1839 20.168 1.53477 14.8923 18.2874 3.48865 13.1147 20.6758 3.57899 
15.0405 18.2685 -0.386102 15.4838 22.288 3.61749 18.997 19.8144 1.68682 
19.2488 21.593 3.75199 17.2297 21.9316 1.57869 17.1259 19.9484 3.72403 
22.8708 18.7994 1.47901 21.1127 19.2143 3.74898 21.2909 21.2484 1.56454 
23.0608 21.1017 3.49019 20.7913 19.2687 40.9991 26.6191 18.2478 1.73788 
25.0957 20.759 1.61283 27.2458 22.4977 1.9217 24.582 18.6789 3.67719 
27.0398 20.4936 3.78307 27.0977 20.2206 41.0415 28.7574 20.0718 1.65363 
30.7069 19.6599 -0.490028 30.9885 21.6959 1.57149 32.4738 19.2849 1.53526 
30.781 19.8135 3.77026 29.3029 22.11 3.6766 32.999 21.343 3.58334 
36.4649 18.6735 1.72135 34.7347 20.9126 1.58564 36.7735 20.643 3.74873 
34.5186 19.0642 3.65294 32.8541 21.2959 -0.511704 5.94847 24.3555 1.44566 
6.25311 26.2529 3.58441 7.80641 24.0216 40.8827 3.81022 24.6735 3.68469 
4.21593 26.6162 1.49703 3.99271 24.7036 40.9662 7.83379 23.8943 3.74453 
3.73207 22.595 1.6887 6.13448 26.367 40.8159 8.09092 25.9558 1.67978 
9.61809 23.524 1.70308 11.5385 23.1455 3.85531 11.7979 25.0057 1.60651 
9.82761 25.5152 3.60668 9.90103 25.5919 -0.61587 13.7256 22.5331 1.57132 
15.6219 24.3036 1.86415 13.609 24.712 3.77048 14.0181 26.7975 1.74963 
15.9233 26.3982 3.76377 17.8647 26.1011 1.65145 19.6225 23.6049 1.61503 
17.6816 23.9401 3.63865 19.6693 25.7569 3.63587 23.3223 23.0546 1.68933 
21.8109 25.4907 1.76876 21.3445 23.3627 3.69816 23.5928 25.0562 3.90976 
25.2336 22.8367 3.88415 25.5438 24.8882 1.78605 27.7286 26.5285 1.47992 
27.3951 24.6803 3.78658 25.8395 26.8856 3.65328 29.2722 24.1753 1.71343 
31.6076 25.9023 1.75246 31.3996 23.7879 3.55217 29.6717 26.164 3.80951 
29.7477 26.0893 -0.534434 33.1339 23.3839 1.34066 35.3362 25.1452 1.67191 
35.1981 22.9409 3.55656 33.6258 25.3616 3.68166 35.3176 22.9039 -0.475932 
33.5307 25.2829 40.9746 6.27887 28.4227 1.68891 4.42416 30.8917 1.61739 
4.45888 28.6143 3.78212 6.50581 30.3824 3.59595 6.64755 30.1348 40.8194 
4.44032 28.6867 40.9429 8.3408 27.9923 3.77424 10.3035 27.3379 1.64828 
8.69046 29.6193 1.64082 10.4292 29.5063 3.58241 8.27504 27.8791 40.9834 
11.9448 27.1738 3.74055 12.4269 29.1088 1.54603 16.1041 28.2855 1.48721 
14.323 28.7338 3.62579 14.3551 30.756 1.5893 12.6091 31.0123 3.72282 
18.3687 30.0334 1.5508 20.0592 27.7804 1.70975 16.5078 30.2539 3.53501 
18.1138 27.9819 3.76121 20.2638 29.9691 3.8208 20.1701 29.9679 -0.498435 
18.228 27.9887 -0.441433 23.9212 27.1471 1.73508 22.054 29.5813 1.67146 
24.1258 29.2433 3.66358 21.9082 27.616 3.73082 24.5098 31.1748 1.79655 
26.1447 28.786 1.81265 27.8192 28.6751 40.8665 28.3117 30.6284 1.74161 
28.1411 28.3753 3.64144 26.3519 30.7986 3.81537 29.7868 28.2382 1.51317 
32.1763 29.7588 1.69087 31.7556 27.7764 3.72222 30.2303 30.1677 3.80268 
30.1463 30.212 41.162 33.8317 27.3492 1.81641 35.9378 28.9873 1.73728 
35.6618 27.123 3.89725 34.0148 29.4807 3.95035 36.0762 31.0662 40.7184 
34.4169 31.3546 1.70142 36.0838 31.1098 3.69701 35.6707 26.9755 41.0093 
6.75974 32.3443 1.60041 5.04998 34.7199 1.64916 4.82809 32.6657 3.72538 
7.025 34.3044 3.52455 4.90419 32.6458 40.9254 10.5654 31.5837 1.62334 
8.99989 34.0298 1.5468 8.75325 31.9198 3.63606 11.0294 33.6633 3.7256 
12.6425 33.3604 1.76902 14.9753 34.8608 1.68189 13.1784 35.3111 3.72845 
14.711 32.5814 3.59408 16.7488 32.5227 1.59161 18.8287 34.3516 1.6229 
16.9241 34.6901 3.73562 18.6497 32.2023 3.55052 18.7259 32.1595 -0.603311 
22.245 31.5627 3.61986 22.5945 31.4989 41.0517 20.5703 31.8888 1.43027 
22.6776 33.5203 1.57567 20.5606 33.9187 3.53419 26.4872 32.8913 1.57161 
24.6881 33.4213 40.7868 24.781 35.2529 1.4536 28.2619 32.6712 3.59382 
24.4702 33.2617 3.69248 26.5973 35.0009 3.67702 28.3501 32.6613 41.0427 
28.5487 34.6843 1.59768 30.3385 32.3421 1.61832 32.3501 31.7816 41.0748 
30.5548 34.167 3.60387 32.3971 33.9272 1.69541 32.373 31.9671 3.90163 
[...]
POINT_DATA 4000
FIELD FieldData 6
id 1 4000 int
405 7 3 766 2 5 11 409 410 
372 770 10 16 15 413 414 13 14 
20 19 418 421 417 21 17 18 24 
28 422 465 63 22 32 67 469 426 
26 65 36 434 430 33 75 34 4 
40 401 438 77 8 47 406 445 45 
6 12 52 51 449 450 49 55 56 
453 454 54 53 59 60 458 457 99 
61 461 64 103 462 501 62 101 68 
72 71 505 466 69 66 473 76 470 
477 80 474 74 70 113 43 79 402 
441 78 446 48 83 485 87 486 91 
92 489 89 490 90 95 96 493 494 
100 139 497 498 537 104 108 502 541 
102 107 509 112 506 109 106 115 111 
517 513 116 114 442 44 119 478 481 
42 81 88 123 482 525 82 127 132 
526 529 131 136 533 135 530 134 534 
140 538 577 144 138 143 545 148 542 
142 147 151 549 510 149 146 120 155 
514 557 153 84 159 518 521 118 128 
522 163 168 565 167 172 569 566 171 
176 573 570 173 175 179 578 574 180 
178 177 183 184 581 585 546 181 182 
187 553 152 550 156 593 150 189 160 
195 197 554 597 154 124 199 561 558 
203 605 602 208 562 205 207 212 609 
606 206 211 215 613 610 174 614 219 
621 220 617 188 582 223 586 221 191 
192 231 589 590 190 196 194 235 200 
594 633 637 164 239 601 598 237 243 
642 245 641 244 241 645 204 242 248 
247 649 251 646 249 216 255 653 256 
657 259 224 618 622 227 228 625 626 
629 232 271 630 669 236 275 634 673 
273 240 279 638 677 238 277 283 284 
681 682 285 281 685 252 287 689 246 
650 291 260 654 295 693 264 263 658 
661 662 262 258 267 268 666 665 307 
272 270 311 670 709 276 315 674 713 
313 280 319 678 717 318 320 718 278 
288 323 721 725 282 292 327 686 690 
296 300 694 697 299 304 698 701 301 
705 305 303 308 702 312 306 347 710 
706 749 310 351 316 314 753 355 714 
353 359 757 758 360 328 363 722 761 
726 365 324 331 332 729 733 330 326 
335 340 734 737 334 337 339 344 738 
741 345 745 343 348 742 785 352 389 
387 746 789 356 391 350 750 793 754 
354 395 797 399 358 794 397 368 364 
762 765 367 362 336 730 371 769 773 
370 366 375 376 774 777 380 379 384 
778 781 23 383 388 382 782 425 25 
27 392 429 786 29 35 31 396 790 
433 390 394 437 39 400 798 398 37 
407 768 805 1166 411 810 809 772 1170 
416 415 814 813 420 419 817 821 818 
424 463 822 428 865 861 423 432 467 
869 826 471 830 873 475 870 403 440 
801 838 806 408 447 845 412 451 849 
452 850 455 456 853 854 459 460 857 
858 464 503 901 862 468 507 905 866 
472 476 909 877 479 874 443 404 841 
802 846 448 885 487 886 492 491 890 
889 495 496 894 893 499 897 500 898 
539 941 504 543 902 508 512 906 945 
511 480 917 913 515 483 842 444 519 
878 881 488 882 523 925 527 532 926 
929 531 535 536 933 930 934 937 540 
579 938 977 575 544 548 942 981 516 
547 910 949 520 555 957 914 484 918 
559 921 528 922 563 965 568 962 567 
572 969 966 571 576 973 970 580 974 
1017 615 583 584 978 946 985 552 551 
953 950 556 993 560 595 954 997 524 
599 958 961 603 1005 1002 608 607 612 
1006 1009 611 1010 616 1013 651 1053 619 
620 1014 1021 588 587 986 982 591 989 
592 631 990 596 635 994 1033 600 1001 
564 639 998 1037 643 1041 1042 644 1045 
647 648 1049 652 1046 655 1050 1057 656 
623 624 1022 1018 627 628 1025 1026 1029 
632 1030 671 1069 636 675 1034 1073 604 
640 679 1038 1077 683 684 1081 1082 687 
688 1085 1086 1089 691 660 1054 659 664 
1061 1058 663 1062 667 1065 668 1066 672 
1109 1070 711 676 715 1113 1074 680 719 
1078 1117 1118 720 723 724 1121 1122 692 
727 1125 1090 695 700 1097 1093 1094 699 
704 1098 1101 707 703 708 1102 1105 1145 
712 1106 747 1149 1110 751 716 1153 1114 
755 759 1157 1158 728 763 1161 1126 1198 
799 696 731 1133 1129 735 1137 740 1134 
739 744 1141 1138 743 748 1142 1185 752 
1146 787 1189 756 791 1150 1193 1154 795 
760 800 1197 767 764 732 1162 1165 736 
1130 1169 771 1173 776 775 1174 1177 780 
779 1178 784 1181 783 788 1182 825 427 
792 829 1186 436 431 796 1190 833 834 
439 435 1194 837 803 807 1202 1205 811 
1210 1209 1172 1570 816 815 1213 1214 820 
819 1218 1217 1221 824 828 863 1222 1261 
1265 832 867 1226 1269 871 1230 1234 875 
840 804 1238 1277 1206 808 847 1245 812 
851 852 1249 1250 855 856 1254 1253 859 
860 1257 1258 899 864 903 1262 1301 868 
907 1266 1305 872 876 1270 1273 1313 1274 
880 843 879 1241 1278 1246 848 883 1285 
887 1286 891 892 1289 1290 1293 895 896 
1294 1297 900 939 1298 904 943 1302 1341 
908 912 1309 1306 911 915 1310 1314 916 
1242 844 919 1281 1317 888 923 928 1325 
1282 927 932 1326 1329 931 935 1330 936 
1333 1334 940 979 1337 1338 1377 944 948 
1345 1342 947 951 1349 1346 920 955 1357 
1353 884 1318 959 1321 1322 963 1365 968 
1369 967 972 1366 971 976 1370 1373 975 
980 1374 1378 1015 1381 983 984 1382 1385 
1350 987 952 956 1389 1393 960 1354 995 
1397 924 1361 999 1358 1362 1003 1405 1402 
1008 1007 1012 1406 1409 1011 1016 1410 1413 
1414 1019 1020 1417 1418 988 1023 1421 1425 
991 992 1390 1031 1386 996 1035 1394 1433 
1000 1437 1401 964 1039 1398 1043 1044 1441 
1442 1445 1004 1047 1048 1449 1446 1052 1055 
1051 1453 1454 1056 1024 1059 1457 1461 1027 
1028 1426 1422 1429 1032 1071 1430 1036 1075 
1473 1434 1040 1079 1438 1477 1083 1084 1481 
1482 1087 1088 1485 1489 1450 1091 1095 1493 
1060 1064 1063 1458 1497 1462 1067 1465 1068 
1466 1469 1072 1470 1509 1111 1076 1115 1513 
1474 1080 1119 1517 1478 1518 1123 1124 1521 
1525 1092 1127 1486 1529 1096 1100 1533 1494 
1490 1099 1498 1501 1104 1107 1505 1103 1108 
1502 1506 1112 1147 1549 1510 1151 1116 1553 
1155 1514 1120 1159 1160 1557 1558 1128 1163 
1565 1522 1561 1199 1131 1132 1136 1530 1526 
1135 1534 1140 1537 1139 1144 1538 1541 1545 
1143 1148 1542 1585 1152 1589 1187 1546 1550 
1156 1191 1593 1554 1195 1200 1597 1168 1164 
1201 1562 1167 1171 1573 1566 1569 1176 1175 
1574 1180 1577 1179 1184 1581 1578 1183 823 
1188 1225 1582 827 1192 1586 1229 836 831 
1196 1233 1590 1237 839 835 1594 1598 1208 
1204 1641 1602 1610 1207 1211 1606 1609 1216 
1215 1614 1613 1220 1219 1618 1617 1621 1224 
1228 1263 1661 1622 1665 1267 1232 1630 1626 
1236 1235 1634 1633 1240 1279 1677 1638 1247 
1243 1642 1645 1646 1212 1649 1251 1252 1650 
1653 1255 1256 1654 1259 1260 1658 1657 1264 
1303 1701 1662 1271 1268 1272 1669 1666 1670 
1275 1276 1673 1674 1315 1244 1280 1717 1678 
1248 1283 1685 1681 1287 1291 1689 1292 1686 
1690 1295 1296 1694 1693 1299 1697 1300 1339 
1698 1304 1308 1705 1702 1307 1312 1709 1706 
1311 1316 1713 1710 1753 1319 1320 1714 1718 
1288 1682 1323 1725 1729 1327 1332 1726 1331 
1727 1732 1730 1336 1733 1335 1734 1737 1340 
1344 1741 1738 1343 1348 1745 1742 1347 1352 
1749 1746 1351 1355 1356 1750 1754 1284 1721 
1359 1757 1328 1363 1368 1722 1765 1367 1769 
1372 1766 1371 1376 1773 1770 1375 1379 1778 
1380 1777 1740 1781 1384 1383 1785 1782 1388 
1789 1387 1391 1786 1360 1395 1797 1793 1790 
1324 1758 1399 1761 1762 1403 1805 1802 1408 
1407 1412 1806 1809 1411 1415 1813 1774 1814 
1419 1420 1817 1818 1423 1424 1821 1822 1392 
1427 1431 1825 1829 1396 1794 1435 1833 1400 
1364 1801 1798 1439 1837 1443 1444 1842 1841 
1845 1451 1447 1448 1810 1849 1851 1416 1455 
1853 1854 1459 1460 1857 1858 1428 1463 1861 
1865 1826 1432 1830 1471 1869 1436 1475 1873 
1834 1836 1404 1440 1479 1838 1877 1483 1484 
1881 1885 1452 1487 1846 1889 1456 1491 1850 
1893 1496 1495 1464 1499 1894 1897 1901 1467 
1468 1866 1862 1507 1472 1870 1511 1909 1476 
1874 1913 1515 1480 1519 1878 1918 1917 1488 
1523 1882 1925 1492 1527 1929 1886 1890 1531 
1535 1933 1930 1500 1504 1898 1937 1905 1503 
1508 1902 1906 1512 1547 1949 1910 1947 1516 
1555 1914 1551 1953 1520 1559 1957 1921 1560 
1528 1563 1922 1965 1961 1532 1567 1571 1926 
1969 1536 1540 1934 1973 1539 1941 1544 1938 
1944 1945 1543 1548 1942 1985 1946 1552 1587 
1989 1952 1950 1556 1591 1993 1991 1954 1524 
1595 1599 1958 1203 1564 1962 1601 1568 1572 
1605 1966 1970 1575 1576 1974 1977 1580 1579 
1978 1584 1981 1583 1223 1588 1625 1982 1227 
1592 1629 1986 1231 1596 1994 1990 1997 1239 
1600 1998 1637 1604 1643 2041 2002 2043 2004 
1608 1612 2045 2008 2047 2049 1647 1616 2014 
1615 2010 2016 2051 2017 1620 1619 2018 2021 
2020 2019 1624 1628 1663 2022 2024 2028 2027 
2026 1623 1632 1631 2030 2029 2032 2031 1636 
1635 2033 2034 2035 2036 1640 1679 2038 2077 
2040 2079 2042 1648 1644 2044 2083 2081 2048 
1651 1652 2050 2046 2052 2087 1655 1656 2053 
2054 2055 2056 1660 1659 2059 2057 2058 2060 
2061 1664 1668 2065 2062 2063 2068 1667 1671 
1672 2069 2066 2067 2072 2071 1675 2075 2070 
1676 2073 2074 2076 2115 2119 1715 1680 1719 
2078 2117 2080 2085 1683 1684 2082 2084 2118 
2159 1687 2088 2089 1692 2086 1691 2091 2092 
2090 1695 1696 2093 2094 2095 2096 1699 2064 
1700 1704 2097 2101 2099 2104 1703 1708 2105 
2102 2103 2108 1707 1712 2109 2106 2107 2112 
2113 2111 1711 1716 2110 2116 2153 1720 1755 
2114 2120 2157 2155 2123 1688 1723 2125 2121 
2128 2124 2129 2126 2127 2132 1731 2131 2133 
1736 2130 2135 1735 2100 2137 1739 2098 1744 
2141 2139 2144 1743 1748 2145 2142 2143 2148 
1747 1752 2149 2146 2147 2152 2151 1751 1756 
1791 2150 2156 2193 2191 1759 1760 2158 2154 
2160 2195 1728 2122 2165 1763 1768 2168 2163 
1767 2169 1772 2166 2167 2171 1771 1775 2134 
2173 2136 2175 2138 2140 1779 2177 2178 1780 
2181 1783 1784 2184 2185 2183 2182 2189 2188 
1788 1787 1792 2187 2186 2229 1795 1796 2190 
2196 2194 2231 1724 1799 2161 2199 2197 2200 
2162 2205 1803 1808 2202 2207 2203 1804 1807 
1811 2170 2172 2209 2211 1776 1815 2213 2174 
2176 2215 2180 1819 1820 2218 2217 2219 2220 
1823 1824 2221 2222 2223 2224 1827 2227 1828 
1832 2225 2228 2226 2267 1831 1835 2232 2233 
2230 2236 1800 2235 2201 1764 2198 2237 1839 
2164 2239 2204 1843 1844 2241 2208 2245 2243 
2206 1847 1812 2210 2249 2212 2251 2247 1816 
1855 2214 2253 2254 2216 2255 1859 1860 2257 
2258 2259 2260 1863 1864 2261 2263 2264 2262 
1867 1871 2265 2269 2272 2268 2234 1875 2273 
2271 2275 1840 2238 2277 1879 2240 2279 1848 
1883 2285 2242 2283 2248 1852 1887 2246 2289 
2252 2287 2250 1856 1891 1896 2293 2291 2256 
2296 2295 1899 1895 1900 2294 2297 2300 2299 
1868 1903 2301 2298 2303 2305 2304 1907 2308 
2266 1872 2270 2309 1911 2311 2307 1876 2274 
1915 2313 2276 2315 2278 1880 1919 2317 2244 
2280 2281 1888 1923 2325 2282 2288 2323 1892 
1927 2329 2286 2292 2327 2290 1931 1936 2333 
2331 2336 2330 1935 1939 2335 2337 2334 2340 
1904 1908 2339 2302 2341 2343 1912 2306 2349 
2310 2312 2347 1951 2351 1916 1955 2314 2353 
2316 2320 1884 1920 2321 2318 2284 1959 2319 
1928 1963 2365 2322 2328 2363 2361 1924 2324 
1932 1967 1972 2326 2332 2369 2367 2372 1975 
1971 2373 2370 2371 2376 1940 2338 2377 2375 
2379 1943 2345 1948 2342 2344 2348 2346 1987 
2389 2352 2387 1956 2350 2354 2355 2356 2357 
2359 1960 1999 2358 2399 2360 1603 1964 2362 
2001 2003 2364 1968 2006 2005 1607 2366 2368 
2007 1611 2009 1976 2012 2013 2011 1980 2015 
2374 1979 2381 1984 2378 2380 2384 2385 1983 
1988 2382 2025 2383 2023 2388 1627 1992 2386 
2390 2392 2391 1995 1996 2393 2394 2395 2396 
2397 1639 2000 2398 2037 2039 2400 2402 2441 
2404 2443 2445 2408 2447 2446 2449 2451 2452 
2453 2414 2418 2420 2419 2421 2423 2425 2428 
2427 2426 2429 2430 2432 2431 2434 2433 2436 
2435 2475 2477 2438 2440 2479 2481 2442 2444 
2483 2519 2448 2485 2487 2489 2488 2454 2450 
2455 2456 2424 2461 2457 2459 2422 2465 2462 
2463 2468 2469 2466 2467 2472 2471 2470 2473 
2474 2476 2515 2517 2478 2480 2482 2521 2484 
2518 2559 2525 2523 2486 2492 2491 2490 2493 
2497 2460 2495 2464 2458 2501 2499 2504 2502 
2505 2503 2508 2509 2506 2507 2512 2513 2510 
2511 2516 2553 2514 2555 2520 2557 2524 2522 
2558 2599 2528 2526 2529 2527 2531 2533 2494 
2496 2535 2537 2500 2498 2541 2539 2544 2538 
2545 2542 2543 2548 2546 2549 2547 2552 2551 
2593 2550 2556 2591 2554 2597 2595 2560 2561 
2565 2563 2567 2569 2530 2532 2571 2534 2573 
2536 2575 2179 2540 2577 2578 2579 2581 2585 
2582 2584 2583 2588 2192 2589 2587 2586 2592 
2627 2629 2633 2590 2596 2631 2598 2594 2635 
2600 2562 2566 2605 2568 2607 2570 2609 2572 
2611 2613 2574 2576 2615 2580 2617 2618 2619 
2620 2621 2623 2624 2622 2625 2626 2628 2667 
2630 2632 2636 2669 2671 2637 2634 2601 2564 
2639 2602 2603 2645 2608 2643 2606 2610 2649 
2612 2647 2651 2614 2653 2654 2616 2655 2658 
2657 2659 2660 2661 2663 2664 2662 2666 2665 
2668 2707 2705 2673 2670 2675 2672 2638 2677 
2604 2640 2685 2642 2648 2683 2646 2689 2652 
2687 2656 2650 2693 2691 2696 2695 2694 2697 
2700 2699 2701 2698 2703 2704 2702 2706 2709 
2711 2708 2713 2674 2676 2680 2681 2641 2678 
2679 2644 2682 2725 2688 2723 2729 2686 2692 
2727 2733 2690 2731 2736 2730 2734 2735 2737 
2740 2739 2738 2741 2744 2743 2745 2749 2710 
2712 2747 2714 2716 2717 2715 2720 2718 2719 
2721 2684 2722 2728 2763 2761 2724 2765 2726 
2769 2732 2767 2772 2773 2771 2776 2770 2777 
2774 2775 2780 2742 2785 2781 2779 2748 2750 
2746 2752 2751 2753 2754 2755 2756 2759 2757 
2758 2760 2799 2762 2401 2403 2764 2406 2405 
2766 2768 2407 2409 2410 2413 2412 2411 2416 
2417 2778 2415 2784 2783 2786 2782 2788 2787 
2789 2790 2792 2791 2794 2793 2795 2796 2797 
2437 2798 2439 2800 2841 2802 2804 2843 2846 
2845 2808 2847 2849 2853 2851 2816 3182 2821 
2814 2820 2819 2825 2828 2823 2827 2826 2830 
2829 2832 2831 2834 2833 2836 2835 2877 2838 
2840 2879 2881 2842 2844 2883 2885 2848 2852 
2887 2893 2850 2857 2856 2855 2861 2824 2818 
2859 2822 2862 2865 2863 2868 2866 2869 2871 
2867 2872 2875 2870 2873 2876 2913 2874 2917 
2915 2878 2880 2919 2882 2918 2921 2884 2959 
2888 2889 2886 2891 2892 2890 2897 2854 2860 
2895 2864 2858 2901 2899 2904 2905 2902 2903 
2908 2909 2906 2907 2912 2953 2910 2911 2916 
2914 2957 2955 2920 2923 2958 2925 2924 2928 
2926 2929 2927 2931 2894 2896 2933 2900 2935 
2937 2898 2941 2939 2944 2938 2945 2942 2943 
2948 2949 2946 2947 2952 2950 2993 2951 2956 
2991 2954 2997 2995 2960 2922 2965 2963 2967 
2930 2969 2932 2971 2934 2973 2936 2975 2977 
2978 2940 2979 2980 2981 2985 2982 2983 2984 
2989 2988 2986 2987 2992 3029 3033 2990 2996 
3031 2994 2999 2998 3000 2961 2966 3005 2968 
3007 2962 3003 2970 3009 2972 3011 2974 3013 
2976 3015 3017 3018 3019 3020 3021 3022 3023 
3024 3025 3026 3027 3028 3067 3069 3030 3032 
3036 3035 2964 3037 3039 3034 3045 3002 3008 
3043 3006 3010 3049 3012 3047 3051 3014 3053 
3054 3016 3055 3056 3057 3058 3059 3060 3062 
3061 3063 3064 3066 3065 3068 3072 3105 3071 
3073 3075 3070 3001 3038 3004 3040 3085 3042 
3048 3083 3089 3046 3052 3087 3050 3093 3091 
3096 3094 3095 3097 3099 3100 3098 3101 3102 
3103 3104 3109 3107 3111 3106 3074 3076 3077 
3080 3041 3078 3079 3044 3082 3125 3088 3123 
3086 3129 3092 3127 3090 3133 3131 3136 3130 
3134 3137 3135 3140 3138 3139 3141 3143 3108 
3110 3112 3145 3113 3147 3116 3117 3114 3115 
3120 3081 3121 3118 3119 3084 3122 3128 3163 
3161 3165 3132 3126 3169 3167 3173 3170 3171 
3176 3172 3177 3174 3175 3179 3142 3144 3181 
3146 3148 3149 3150 3152 3151 3153 3154 3155 
3156 3159 3124 3157 3160 3158 3199 2801 3162 
2803 3164 2806 3166 2805 3168 2807 2809 2810 
2813 2812 2811 2815 2817 3178 3180 3184 3183 
3186 3185 3188 3187 3189 3190 3192 3191 3193 
3194 3195 3196 3197 2837 3198 2839 3200 3241 
3202 3204 3243 3245 3249 3208 3212 3210 3214 
3216 3215 3221 3217 3218 3220 3219 3225 3224 
3228 3227 3226 3222 3223 3230 3229 3232 3231 
3234 3233 3236 3275 3238 3277 3240 3279 3242 
3281 3248 3244 3247 3246 3251 3252 3250 3254 
3255 3253 3256 3257 3261 3259 3260 3264 3262 
3265 3263 3268 3269 3266 3267 3272 3271 3273 
3270 3274 3313 3276 3315 3278 3317 3280 3319 
3318 3285 3283 3282 3284 3287 3286 3289 3292 
3291 3290 3297 3293 3295 3296 3258 3301 3299 
3304 3302 3305 3303 3308 3309 3306 3307 3312 
3353 3310 3311 3316 3314 3357 3355 3320 3288 
3325 3321 3323 3328 3329 3326 3327 3332 3333 
3294 3331 3335 3300 3337 3298 3341 3339 3344 
3345 3342 3343 3348 3349 3346 3347 3352 3393 
3350 3351 3356 3391 3354 3359 3358 3360 3322 
3365 3363 3368 3330 3367 3371 3369 3334 3373 
3336 3375 3338 3377 3378 3340 3379 3380 3382 
3381 3383 3384 3385 3388 3389 3386 3387 3392 
3390 3395 3396 3394 3429 3324 3397 3361 3399 
3362 3366 3405 3403 3407 3370 3409 3372 3411 
3374 3413 3376 3415 3417 3418 3419 3420 3421 
3422 3423 3424 3425 3426 3427 3428 3432 3433 
3431 3430 3435 3400 3364 3398 3437 3401 3439 
3445 3406 3402 3408 3443 3410 3449 3412 3447 
3414 3451 3453 3454 3416 3455 3457 3458 3459 
3460 3461 3462 3463 3464 3465 3469 3467 3471 
3466 3434 3436 3475 3473 3404 3438 3440 3477 
3479 3442 3485 3448 3483 3446 3489 3452 3487 
3456 3450 3493 3491 3496 3495 3494 3497 3499 
3500 3498 3501 3468 3503 3505 3470 3472 3509 
3511 3507 3513 3474 3476 3515 3441 3481 3478 
3444 3480 3525 3482 3488 3523 3486 3529 3492 
3527 3490 3533 3531 3536 3530 3534 3537 3539 
3535 3502 3541 3504 3508 3545 3506 3549 3512 
3547 3510 3517 3514 3551 3516 3520 3518 3521 
3484 3519 3559 3522 3561 3528 3563 3565 3569 
3526 3532 3567 3572 3573 3570 3571 3575 3538 
3540 3577 3544 3542 3543 3548 3585 3583 3550 
3546 3552 3587 3554 3553 3555 3556 3557 3558 
3524 3560 3599 3597 3201 3562 3203 3564 3568 
3206 3205 3566 3207 3209 3574 3213 3211 3576 
3580 3581 3579 3578 3584 3586 3582 3588 3590 
3589 3591 3592 3235 3594 3593 3595 3596 3237 
3598 3239 3600 3602 3641 3608 3604 9 3610 
3606 3611 3607 3609 3613 3614 3616 3615 3618 
3617 3620 3619 3621 3622 3624 3628 3663 3661 
30 3626 3630 3629 3632 3631 3634 3633 3636 
3635 3675 38 3638 3677 3640 3679 3645 3642 
3643 3647 3612 3650 50 3649 3652 3651 3654 
3653 3655 3656 58 57 3658 3657 3659 3660 
3699 3662 3665 3664 3668 3669 3666 3667 3672 
3671 3670 73 3674 3673 3676 3715 3713 41 
3678 3717 3644 3680 46 85 3646 3648 3681 
3685 3683 3687 86 3689 3692 3691 3690 3686 
94 93 3694 3693 3695 3696 97 98 3701 
3697 3700 3704 105 3705 3702 3703 3708 3709 
3706 3707 3712 110 3753 3710 3711 3716 117 
3714 3718 3719 3720 125 3682 3725 3688 3723 
3728 129 126 3726 3729 3727 3732 130 133 
3731 3730 3733 3735 3736 137 141 3738 3698 
3737 3741 3739 3744 145 3745 3742 3743 3748 
3749 3746 3747 3752 157 3751 3750 3754 3755 
3756 121 3721 3757 3684 3759 122 3765 165 
3722 3763 3768 166 169 3769 3766 3767 3772 
170 3734 3773 3771 3775 3774 3777 3778 3740 
3779 3780 185 3785 3781 3782 3783 3784 193 
3788 3789 3786 3787 3791 3790 3793 3760 3795 
3797 158 161 3758 3724 3761 3799 202 3762 
162 3802 3805 3803 3808 209 3770 3809 3807 
3811 213 3813 3776 3815 214 3814 217 3818 
3817 3819 218 3820 225 3821 3822 3823 3824 
186 3825 3792 3829 3827 233 3794 3796 3833 
3835 3800 201 198 3764 3798 3801 3837 3839 
3845 3841 3843 3844 210 3806 3849 3810 3812 
3847 3851 253 254 3853 3816 3855 3856 3854 
261 3857 3858 257 3859 3860 226 222 3861 
3828 3865 3863 230 3831 229 3826 3830 3832 
3871 3869 234 3834 3836 3873 3875 3804 3877 
3838 3840 3879 3842 3885 3848 3883 289 3889 
3846 3852 3887 293 250 3850 3893 3891 3896 
290 297 3895 3897 3894 3899 3864 266 265 
3901 3867 3862 3868 3866 269 309 3870 3872 
3909 3911 274 3874 3913 3876 3915 317 3917 
3878 3880 3919 3925 3882 3888 325 3923 329 
286 3929 3886 3892 3927 294 3890 3933 3931 
3935 3930 298 3898 3937 3900 3904 302 3907 
3905 3902 3903 3908 3945 349 3949 3906 3912 
3947 3910 3914 3953 3916 3951 3955 357 3881 
3921 3884 3918 3920 321 3959 322 361 3922 
3961 3928 3963 3965 3926 3969 3932 3967 3971 
333 3934 3973 3936 3940 338 341 3938 3939 
3944 3941 342 385 3943 3985 3942 3948 3983 
346 3946 3989 3952 3987 393 3954 3950 3956 
3991 3957 3958 3924 3960 3999 1 3601 3962 
3603 3964 369 3605 3966 3968 3972 373 3970 
374 377 3975 3976 3974 3977 3980 381 378 
3978 3981 3979 3984 3625 3982 3623 3988 386 
3990 3986 3627 3992 3993 3994 3995 3996 3637 
3998 3997 3639 4000 
type 1 4000 int
1 1 1 1 1 1 1 1 1 
1 1 1 1 1 1 1 1 1 
1 1 1 1 1 1 1 1 1 
1 1 1 1 1 1 1 1 1 
1 1 1 1 1 1 1 1 1 
1 1 1 1 1 1 1 1 1 
1 1 1 1 1 1 1 1 1 
1 1 1 1 1 1 1 1 1 
1 1 1 1 1 1 1 1 1 
1 1 1 1 1 1 1 1 1 
1 1 1 1 1 1 1 1 1 
1 1 1 1 1 1 1 1 1 
1 1 1 1 1 1 1 1 1 
1 1 1 1 1 1 1 1 1 
1 1 1 1 1 1 1 1 1 
1 1 1 1 1 1 1 1 1 
1 1 1 1 1 1 1 1 1 
1 1 1 1 1 1 1 1 1 
1 1 1 1 1 1 1 1 1 
1 1 1 1 1 1 1 1 1 
1 1 1 1 1 1 1 1 1 
1 1 1 1 1 1 1 1 1 
1 1 1 1 1 1 1 1 1 
1 1 1 1 1 1 1 1 1 
1 1 1 1 1 1 1 1 1 
1 1 1 1 1 1 1 1 1 
1 1 1 1 1 1 1 1 1 
1 1 1 1 1 1 1 1 1 
1 1 1 1 1 1 1 1 1 
1 1 1 1 1 1 1 1 1 
1 1 1 1 1 1 1 1 1 