# vtk DataFile Version 4.0
Generated by LAMMPS
ASCII
DATASET POLYDATA
POINTS 4000 float
5.38523 1.2397 1.22154 3.63743 1.25872 41.5311 3.64729 -0.8351 1.232 
38.618 1.11041 1.28051 3.68734 3.28992 1.27966 38.6655 -0.973242 41.4347 
5.46671 3.25291 3.33234 5.49855 41.4307 -0.843398 9.32708 1.24011 1.36612 
11.1734 3.22787 1.21195 11.0647 41.4213 1.16732 7.25336 1.19738 3.15575 
13.0697 1.11192 1.11312 14.6646 3.35154 1.09412 11.308 1.18167 3.16945 
10.9531 1.16138 41.5344 14.8852 1.18965 -1.13959 16.5718 1.14995 1.0583 
16.5849 3.20446 3.18607 18.357 3.36205 1.10172 18.4005 1.14432 3.14321 
20.1026 0.967684 0.964306 21.9674 1.13427 3.15443 23.9792 1.14277 1.04078 
20.2751 3.31886 3.12826 23.8918 -1.03847 -1.12264 25.7352 1.23895 3.07009 
25.7376 -0.891868 0.925778 27.6984 1.07361 1.08351 27.4908 3.22426 3.11298 
25.919 1.17526 41.3275 31.1802 1.25939 1.26842 33.3295 41.7689 1.06488 
31.2796 3.27251 3.22879 29.5945 -0.894937 0.992936 29.4161 1.22203 3.26045 
1.73773 -1.01725 3.36792 35.114 1.39718 1.16045 36.6838 1.06407 3.36237 
36.7653 41.3712 1.24996 5.40977 5.5184 1.25958 1.72624 5.38661 1.06636 
7.35172 3.27672 1.21097 9.15339 5.42592 1.15744 11.066 5.43059 41.3967 
12.8653 5.3788 1.07698 11.2061 7.44779 1.1075 14.6822 7.72999 1.05657 
11.184 5.38623 3.22744 14.7163 5.289 3.1853 16.5456 5.43565 1.1233 
20.4543 5.23402 1.14652 16.6478 7.63726 -0.888162 18.4797 5.45196 -0.985521 
22.2656 3.07127 1.19832 23.8558 5.46131 0.996 22.1613 7.53282 1.02779 
22.1975 5.52225 3.11206 29.5055 3.33697 1.19187 25.6904 3.26649 1.0998 
27.4952 5.58861 1.13029 25.8751 7.71607 1.10577 29.4726 7.68851 1.19623 
29.677 5.61791 41.4638 33.1071 3.28555 1.14237 31.3892 5.48245 1.41216 
31.2326 7.51841 3.30678 33.1325 5.35374 41.3463 36.8911 3.35224 1.29546 
34.859 5.43631 1.20114 36.8085 5.494 41.4603 34.9264 7.45394 -0.875605 
38.6609 3.2606 41.3809 5.36654 7.45565 3.25787 1.79598 7.62397 41.349 
3.31857 7.63379 1.2868 5.39753 9.49073 1.26955 3.64569 9.7902 41.5191 
38.6374 9.74399 1.07326 38.4455 11.828 41.5392 7.25435 7.59239 1.16075 
9.19999 9.56469 1.21989 7.36956 11.8371 1.18174 10.9184 11.623 1.09271 
9.37261 7.56418 3.23826 7.40293 9.48841 41.4575 12.9555 9.75312 1.02141 
12.7454 11.8661 3.36896 12.9883 7.40154 3.17931 14.6465 9.93252 3.34257 
18.291 7.51541 1.14738 16.4232 9.83379 1.17282 18.5142 9.65242 -1.01883 
18.3764 9.63905 3.30449 16.5672 11.8407 3.16463 20.0406 9.52475 1.22706 
22.0869 11.7834 1.10596 21.9728 9.74306 3.17836 24.0587 9.53915 1.25761 
20.1299 11.8788 3.14938 22.0652 9.5492 41.762 27.7095 9.66684 0.937452 
29.4197 11.697 1.13428 29.4864 9.69025 41.3229 27.7084 7.55586 41.4 
27.5694 11.8331 -0.866596 31.4478 7.75293 41.2314 32.9339 7.54542 1.21439 
31.3406 9.82254 1.24158 33.2405 11.8094 1.17445 33.2199 9.79457 41.5303 
36.7286 7.47626 1.17809 34.8504 9.52386 1.45729 36.8771 9.59035 3.39356 
5.19986 11.6545 3.43345 3.70365 11.8526 1.24192 5.42093 13.9645 1.29381 
3.5556 13.9462 3.33924 9.3134 13.9517 1.07484 7.12311 14.0145 41.4765 
10.7502 13.892 3.37114 12.4209 13.7648 1.24417 10.7799 16.1891 1.33982 
14.7367 11.8262 1.09102 14.4378 13.9163 -1.03943 14.7032 13.7672 3.07404 
18.4076 11.8823 0.960625 16.6171 13.8434 1.05309 20.3093 13.9645 1.15006 
23.9769 13.8954 1.16315 23.8707 15.9931 41.5014 24.0135 11.7123 -1.07971 
22.0461 13.8835 3.35598 25.6977 11.6676 1.18359 27.6078 13.8163 1.16414 
29.4635 13.8926 3.27393 25.7171 13.9933 41.285 31.3084 13.7069 1.27189 
33.1051 15.9365 1.18261 33.0647 13.7091 41.3994 29.4389 13.9038 41.4534 
31.2582 11.7613 41.424 36.521 11.5986 1.489 35.0797 11.738 41.4029 
1.67922 13.9254 1.50329 35.0075 13.8469 1.29066 3.52824 16.1532 1.30378 
5.66773 18.1129 1.28054 1.48931 18.2755 1.25586 3.67487 17.9811 41.4592 
5.55699 15.9903 3.27443 3.55461 18.1481 3.33271 7.42867 15.9031 1.14686 
9.04117 18.3524 1.26174 10.6976 18.2053 -0.847124 9.02582 15.9654 3.49428 
12.782 15.8841 3.23261 14.6993 15.9353 1.23276 12.9183 18.0202 0.954286 
14.7445 18.0786 3.48539 12.6927 16.0435 -0.891811 14.67 18.1021 -1.02429 
18.3661 16.0193 1.15558 16.3033 18.1522 1.04979 20.2684 18.1319 1.27252 
18.3485 20.0994 1.20301 18.1539 18.2653 41.428 16.5866 15.8892 3.27327 
16.5163 20.3513 -0.801636 22.0708 15.9554 1.08192 22.1101 20.1544 1.22457 
23.9064 17.9557 1.36974 22.0384 18.113 41.4968 25.7799 15.9751 1.12682 
27.6709 18.0964 1.13565 25.723 20.2251 1.30642 29.3535 18.1424 3.4357 
27.5314 20.2447 3.3156 29.5102 16.0118 1.19605 31.3075 18.1108 1.171 
29.5653 20.2348 1.1444 31.2893 20.1783 3.44937 36.7367 16.1419 1.29563 
1.75013 16.0387 3.34766 34.81 18.0423 1.27832 36.6591 20.3455 0.989902 
34.9071 20.5203 -0.927893 35.0404 16.0443 3.43389 34.9509 15.8187 41.5612 
38.6624 15.9027 41.5997 3.54957 20.1785 1.16596 5.40497 22.4214 1.15553 
5.45592 24.5732 -0.878907 5.47286 20.4737 3.2588 3.59671 22.3683 3.36414 
7.29691 20.3468 1.18479 9.01489 20.3441 -0.82884 9.19805 22.4175 0.977888 
7.32314 24.5121 1.08842 7.17189 22.402 41.283 11.1784 20.236 1.02884 
10.8998 22.407 -1.01443 12.8893 20.1524 -1.04857 12.8314 20.2865 3.30567 
12.8149 22.3967 1.16401 14.4208 20.4098 1.12053 14.7577 22.3133 3.36046 
16.4373 22.3759 1.32949 18.432 24.5352 1.36426 16.6124 20.1369 3.33695 
18.3731 22.4705 3.2613 18.4214 22.3999 -0.751684 20.3653 22.3522 1.32147 
22.0767 22.5536 3.29979 22.0878 22.5006 -0.836516 23.9042 22.3734 1.20633 
22.1219 24.5435 1.23935 23.8925 24.5464 3.31834 20.2999 24.5382 41.5558 
27.6955 20.1662 -0.92309 27.6988 22.2147 1.2418 27.5589 24.3865 -0.786551 
29.5908 22.352 3.18829 25.8577 22.3437 3.47316 27.6332 24.5335 3.40944 
33.0154 20.2754 1.29173 31.3154 22.4319 1.22254 29.3946 24.5832 1.25643 
33.193 22.4439 3.33152 38.5147 22.4732 1.23326 1.68625 19.9961 41.3829 
34.7611 22.4327 1.23098 35.1633 24.5685 41.238 3.62053 24.6153 1.15505 
5.27315 26.6829 1.20176 3.62322 26.5226 41.3596 3.65728 28.9025 1.31146 
9.00219 24.5172 41.3954 9.17603 26.7467 0.994943 7.18915 28.5491 1.26801 
7.30625 26.5386 3.1931 7.28771 26.6541 -0.93648 10.9166 24.5143 1.23113 
12.7861 24.5634 3.38505 14.4997 24.5485 1.19688 12.8129 26.6346 1.20143 
14.801 28.7359 1.30163 10.9195 28.6902 1.33054 11.1223 26.62 3.17373 
16.4567 24.4455 3.2806 16.6639 26.6606 1.14417 18.5035 28.7147 1.25793 
20.2231 24.4489 3.45572 16.5976 24.5409 41.7485 18.5967 26.8079 -0.899646 
20.2954 26.5597 1.33833 23.9333 26.7324 1.24571 22.141 28.7929 1.29645 
20.5259 28.8101 -0.86385 25.8441 24.4805 1.37972 27.5636 26.5728 1.31881 
25.8995 28.6952 1.17229 25.7004 26.7521 3.4156 33.2427 24.5173 1.08635 
29.4217 26.6461 3.41963 31.2623 26.6181 1.33586 33.2219 26.5967 -1.00602 
33.1157 28.7819 1.15036 33.2503 26.5936 3.1864 31.2954 24.4999 3.2964 
36.6214 24.4853 1.21341 38.6055 24.4501 -0.848518 1.81314 26.6469 1.35721 
35.0858 26.7277 1.09401 36.8428 26.7706 -1.02712 5.50623 31.0601 1.16982 
38.5657 30.9573 1.19881 38.5934 28.8449 3.20942 3.35426 30.825 3.4268 
9.2833 30.9107 1.161 7.43699 32.9059 1.17834 7.29008 30.6882 -1.18326 
9.20683 32.9266 41.398 9.23136 32.8122 3.42219 12.6714 28.6271 -1.01789 
12.885 30.7846 1.25552 12.9291 28.7908 3.41781 14.608 32.9919 1.17855 
14.674 30.7465 3.27368 11.0902 30.9374 41.3308 14.6241 30.8544 -0.951831 
16.6532 30.985 1.37901 18.3896 30.9621 3.36992 16.4492 32.8421 3.46907 
20.2831 28.8066 3.49495 18.4111 32.9585 1.32863 20.3236 30.9136 1.28393 
24.0465 30.8267 1.1987 24.0835 33.044 -0.849656 27.7893 30.8296 1.20786 
29.5153 31.0084 3.30769 27.8904 28.7272 3.34648 25.8979 30.6604 3.51689 
29.5149 28.6325 0.926196 31.1891 28.7765 3.43617 29.6725 33.1132 1.1717 
31.3459 30.8595 1.20736 33.0232 33.069 1.21813 33.1889 30.9808 -1.07833 
37.0279 28.744 1.07837 35.0584 30.954 1.11061 34.9908 32.975 41.5244 
36.8045 33.1643 1.31399 36.8652 31.0146 3.41467 3.73883 32.8368 1.22155 
1.94585 32.8729 41.5595 5.43359 35.0244 1.4231 3.52567 37.1346 1.29841 
5.54108 37.202 3.32872 9.28473 35.1892 1.00363 7.41505 35.1626 41.3127 
9.10895 37.1493 3.42321 11.2139 35.0992 41.2957 10.9361 33.0422 1.11195 
12.9424 35.0517 1.0571 14.4883 35.0181 3.39313 14.8137 34.9946 41.5109 
11.0417 37.3238 1.31093 12.8575 37.1599 -1.08328 14.6193 37.1796 1.08937 
12.8604 37.2781 3.35174 16.5411 35.0375 1.33326 16.5951 32.8498 -0.722756 
18.2788 34.8616 3.38361 20.2244 36.9779 3.40368 20.417 37.1108 -0.849544 
22.0867 32.9332 1.31322 20.2944 35.045 1.27748 23.999 34.9104 1.28779 
23.8075 37.2591 3.3237 22.1891 37.091 1.11251 22.1772 35.2144 3.3804 
25.8246 32.8717 1.34004 27.8573 35.1065 1.26395 29.6412 35.1003 3.42605 
31.3809 35.3279 1.25605 33.1338 35.1808 -0.863914 29.5429 37.3995 1.26352 
1.95396 35.0244 1.30146 35.0547 35.1277 1.1698 35.0271 37.1812 -0.821525 
1.74273 33.094 3.34951 34.9732 37.2844 3.53967 5.47127 39.2009 1.20343 
7.37782 -1.04552 1.11594 9.27078 41.3243 3.01983 7.26027 37.1222 1.13322 
9.16967 39.2225 1.28439 7.2719 39.1668 3.44257 7.40763 39.1362 41.4989 
12.9641 -0.774991 -0.899081 14.9106 -0.862374 1.20878 12.8302 39.443 1.33865 
10.9107 39.3006 3.52719 11.0097 39.1951 -0.820518 14.6989 39.2828 -0.709266 
14.732 39.2456 3.29663 18.3677 37.0985 1.19486 16.488 36.9365 3.15421 
16.5014 39.0609 1.14204 18.1853 -1.01444 1.00989 18.3566 39.1683 3.28755 
16.5031 -1.03017 -1.08861 22.2094 -0.986646 0.983496 20.1992 39.1842 1.23574 
20.0193 -1.0002 3.07852 23.9889 39.244 1.11398 22.0918 39.3482 3.21594 
20.1694 -0.959405 41.4006 25.7052 37.0048 1.29718 27.642 39.4416 1.01201 
25.8162 39.4716 3.09302 33.3552 37.247 1.43999 31.6381 39.3918 1.2238 
33.3758 39.3345 3.40319 31.2893 37.3516 3.27058 38.7045 39.3537 1.28086 
36.8786 37.2541 1.34483 34.9556 39.2546 1.27462 36.8367 39.239 3.45888 
35.0918 -0.880797 41.2813 3.81454 1.17025 3.38212 5.60987 1.11594 5.51127 
38.5627 1.13449 5.42725 5.53671 -0.794665 3.20449 5.40401 3.08379 7.46126 
9.31824 1.28007 5.25838 7.45943 3.19518 5.32004 11.2881 3.37281 5.4144 
7.34996 1.02715 7.52425 9.26551 3.27608 7.50972 14.7752 1.07477 3.27924 
12.9663 -0.992086 3.21267 12.7936 1.05202 5.32502 11.1183 1.13128 7.59312 
13.0426 3.26629 3.31082 14.8877 3.3587 5.45152 14.746 -1.01004 5.5243 
[...]
POINT_DATA 4000
FIELD FieldData 6
id 1 4000 int
8 2 3 4 43 1 445 5 12 
51 11 406 16 55 410 10 14 20 
457 59 418 24 422 28 461 25 426 
27 32 469 26 36 35 473 31 430 
401 40 438 39 48 44 47 52 50 
56 91 95 450 454 60 64 97 58 
63 68 103 462 71 67 72 107 111 
70 75 76 513 74 79 80 78 117 
41 485 81 83 88 82 84 121 87 
92 127 131 489 86 96 533 493 494 
99 100 98 498 537 104 143 502 108 
541 102 112 151 110 109 149 113 115 
116 155 114 119 120 518 525 123 128 
522 132 126 530 136 171 135 134 534 
139 140 144 148 185 145 542 147 152 
550 146 156 195 154 150 153 159 157 
124 160 163 168 164 162 565 562 167 
172 170 569 573 175 176 574 173 174 
179 180 184 219 178 577 217 183 223 
188 182 187 192 227 590 629 191 196 
231 633 199 561 200 239 237 597 197 
161 203 208 245 605 602 207 209 212 
247 206 211 210 213 613 216 215 614 
220 259 617 618 218 224 622 222 228 
263 665 261 229 232 269 630 626 669 
235 236 271 634 204 201 240 277 243 
248 242 283 249 252 287 646 246 251 
653 255 256 295 291 650 657 260 299 
661 257 258 264 268 303 301 267 272 
307 666 275 670 276 274 315 674 673 
279 241 244 280 278 288 284 681 682 
292 327 286 329 729 293 296 693 335 
694 290 294 300 698 737 701 339 304 
308 345 312 710 709 706 311 713 351 
316 355 314 319 320 357 359 718 323 
321 328 363 765 332 326 769 330 331 
336 734 334 371 373 375 773 340 337 
738 781 381 343 344 348 785 383 742 
347 352 750 356 354 391 324 360 397 
721 797 368 7 409 367 372 766 366 
13 15 376 770 370 374 774 379 777 
380 19 778 17 23 384 421 388 782 
21 387 392 786 395 396 794 793 364 
399 400 798 37 402 408 404 405 845 
412 447 451 806 849 414 413 416 810 
453 455 415 420 459 818 465 424 822 
428 865 825 427 432 467 471 869 826 
433 830 434 436 435 475 873 440 479 
437 838 442 481 441 443 448 842 444 
483 446 449 452 850 456 853 497 460 
458 501 499 861 463 464 862 468 505 
466 509 470 472 474 476 515 874 478 
477 480 519 877 482 488 523 885 486 
491 487 492 886 490 495 496 535 500 
539 898 503 504 508 545 905 506 507 
511 512 510 514 516 551 517 484 557 
520 559 957 521 528 524 527 526 529 
532 571 531 536 930 934 538 540 937 
938 977 585 543 544 548 546 589 547 
949 549 552 950 553 593 555 554 556 
954 993 558 560 958 563 568 564 566 
609 567 572 969 966 611 575 570 576 
970 973 974 621 578 580 581 579 584 
981 582 583 588 625 1025 586 587 592 
627 1029 591 594 595 596 994 635 1033 
598 599 600 997 603 645 608 604 601 
643 1045 607 606 612 647 649 1006 610 
1010 1049 615 616 1014 619 620 1017 623 
624 628 1065 631 632 671 667 1026 1030 
1069 636 675 1073 638 639 637 640 677 
1037 642 648 1085 1042 689 652 691 1050 
651 656 1093 655 654 658 660 659 664 
1057 662 663 668 705 1061 1062 707 1066 
672 1070 676 641 644 678 679 680 1077 
685 683 688 1082 687 686 692 1086 1129 
690 696 695 697 1097 700 699 745 703 
702 704 743 708 1105 1102 712 751 1109 
1106 753 711 714 715 716 755 1113 1114 
717 719 684 720 759 757 723 725 722 
728 724 763 1125 727 726 732 730 731 
733 736 735 775 771 1173 741 739 740 
779 1138 1145 744 783 748 746 749 747 
1146 752 787 1149 754 756 795 1150 758 
760 799 403 762 768 761 1162 801 407 
767 772 1166 1169 813 411 776 1174 417 
780 419 817 821 425 423 784 1182 788 
1185 789 429 792 1186 790 431 791 796 
439 764 800 1161 802 808 804 841 1205 
812 807 1209 1249 1206 816 811 814 815 
851 1253 820 1218 859 1257 824 863 1222 
828 829 832 1230 1269 831 834 871 836 
837 840 839 843 844 848 847 846 852 
887 891 854 855 856 1293 895 1254 1250 
897 857 860 858 1258 899 1297 864 903 
868 901 1262 1301 866 870 867 872 909 
913 875 876 878 879 880 919 882 881 
883 888 884 1321 1285 889 892 927 931 
893 890 896 894 1294 1333 900 939 1337 
1298 902 904 1302 908 941 1341 907 906 
911 912 951 910 914 915 916 955 1314 
917 918 920 921 1317 925 922 923 928 
1325 965 926 929 932 967 1326 933 936 
971 935 1330 940 944 1338 945 942 985 
943 948 1345 946 947 952 987 953 956 
995 959 924 960 1397 961 962 963 968 
964 1003 1001 1005 1009 972 1409 1013 976 
1011 1370 975 1015 978 980 979 984 1378 
1019 982 983 988 1385 986 989 992 1429 
990 991 996 1035 1394 1031 1433 998 999 
1000 1398 1002 1008 1004 1043 1007 1012 1047 
1051 1053 1016 1453 1021 1020 1018 1024 1418 
1023 1022 1063 1422 1028 1425 1027 1032 1034 
1036 1434 1039 1401 1038 1040 1079 1477 1041 
1048 1044 1083 1046 1052 1054 1056 1055 1493 
1058 1060 1059 1099 1457 1458 1064 1461 1068 
1071 1067 1072 1509 1075 1074 1076 1513 1115 
1473 1470 1078 1080 1117 1119 1517 1081 1088 
1123 1084 1521 1485 1089 1087 1092 1091 1486 
1094 1090 1096 1095 1494 1533 1131 1501 1100 
1101 1098 1498 1497 1103 1104 1108 1545 1107 
1111 1506 1110 1112 1549 1151 1116 1553 1153 
1155 1118 1120 1159 1157 1557 1122 1124 1128 
1165 1565 1121 1163 1522 1126 1529 1127 1132 
1167 1133 1130 1135 1136 1530 1134 1534 1175 
1141 1137 1140 1177 1139 1577 1179 1142 1143 
1144 1183 1148 1189 1147 1152 1546 1550 1589 
1154 1191 1193 1156 1195 1158 1160 1199 1558 
1597 803 805 1168 1164 809 1172 1171 1170 
1573 1176 1570 1574 819 1181 1180 1178 1184 
1221 823 1582 1188 1187 827 1586 1192 1229 
833 1190 1194 835 1196 1590 1201 1197 1198 
1200 1202 1208 1203 1605 1212 1606 1610 1609 
1210 1216 1214 1215 1217 1220 1259 1617 1219 
1618 1265 1224 1228 1226 1227 1267 1626 1232 
1669 1231 1273 1234 1236 1275 1271 1673 1634 
1204 1238 1240 1277 1237 1637 1281 1245 1243 
1242 1248 1642 1244 1645 1247 1246 1252 1289 
1291 1649 1646 1653 1255 1251 1256 1654 1693 
1260 1658 1697 1261 1263 1264 1305 1268 1662 
1266 1666 1307 1272 1709 1270 1313 1670 1311 
1274 1276 1674 1241 1279 1278 1280 1282 1283 
1288 1286 1287 1292 1327 1290 1296 1295 1335 
1694 1299 1701 1300 1303 1304 1343 1705 1308 
1702 1306 1309 1310 1347 1312 1351 1706 1353 
1315 1316 1319 1318 1284 1320 1757 1322 1323 
1328 1365 1722 1765 1363 1329 1369 1332 1367 
1726 1334 1373 1331 1336 1371 1730 1340 1339 
1344 1342 1741 1383 1348 1349 1350 1346 1387 
1352 1750 1354 1355 1391 1356 1395 1358 1359 
1357 1324 1360 1399 1362 1368 1405 1805 1762 
1403 1366 1372 1407 1411 1770 1413 1374 1376 
1375 1415 1813 1377 1417 1380 1379 1381 1419 
1382 1384 1423 1388 1782 1825 1386 1427 1389 
1392 1790 1829 1390 1793 1393 1396 1435 1431 
1833 1361 1364 1400 1439 1801 1445 1441 1402 
1408 1802 1404 1443 1406 1449 1410 1412 1447 
1451 1414 1416 1853 1420 1421 1424 1459 1465 
1428 1865 1426 1826 1432 1830 1467 1869 1430 
1436 1873 1475 1834 1438 1437 1440 1479 1838 
1442 1448 1444 1842 1481 1446 1452 1450 1456 
1454 1455 1893 1495 1460 1464 1499 1901 1897 
1505 1463 1462 1468 1503 1862 1471 1466 1469 
1472 1507 1474 1476 1515 1478 1480 1878 1877 
1482 1483 1488 1525 1885 1487 1489 1492 1490 
1527 1491 1496 1531 1894 1500 1541 1504 1539 
1941 1502 1543 1508 1945 1547 1512 1949 1551 
1906 1909 1510 1514 1511 1910 1516 1555 1953 
1914 1519 1484 1518 1520 1561 1523 1528 1524 
1965 1526 1569 1532 1567 1571 1926 1536 1535 
1575 1538 1537 1540 1544 1579 1542 1585 1942 
1583 1548 1946 1587 1552 1591 1950 1554 1556 
1593 1954 1559 1560 1599 1958 1562 1563 1568 
1962 1566 1207 1572 1211 1213 1576 1578 1581 
1580 1981 1584 1977 1978 1225 1223 1982 1621 
1625 1588 1985 1986 1592 1629 1233 1235 1595 
1594 1596 1994 1564 1598 1239 1600 1602 1608 
1641 2002 1601 1603 1612 1607 1647 1614 1616 
1655 1615 1620 2017 1624 1619 2018 2021 1657 
1622 2022 1628 1623 1627 2026 1632 1631 1633 
1630 1636 1675 1638 1604 1640 2038 1679 2037 
1681 1643 1648 1683 2045 2085 1689 1652 2049 
1651 2046 1650 1656 2054 1661 1659 2061 1660 
2097 1664 2058 1665 1663 1668 2062 1667 2066 
1672 1711 1713 1671 1676 1715 1677 1644 1678 
1680 1719 1685 1725 1682 1688 1686 1690 1687 
1692 2086 2089 1691 1696 2090 1695 1699 1700 
1698 2098 2141 1703 1704 1708 2105 1707 2106 
1712 1747 1710 1714 1751 1716 1755 2110 1684 
1717 1718 1720 1759 1721 1761 1723 1728 2165 
1763 1729 1727 1732 2129 2126 1767 1733 1735 
1731 1736 1734 2130 1738 1737 1740 2137 1739 
1744 1777 1745 1743 1742 1783 1748 1746 1749 
1789 1752 1791 2189 1753 1754 1756 1795 2193 
1758 1724 1760 1768 1764 2205 1769 1766 1772 
2209 1809 2169 1807 1811 1773 1771 1776 1774 
1775 1815 1780 1778 1779 1784 1817 1781 1785 
1788 1823 2221 1786 1787 1792 1794 1796 2194 
1831 2233 1797 1798 1799 1800 1839 2237 1845 
1803 1808 2245 2202 1843 2241 1806 1849 1812 
1847 1810 1814 1816 1851 1855 1821 1819 1820 
1818 1824 1857 1822 1828 1827 1832 1871 2226 
2230 1835 1836 2234 1837 1804 1840 2238 1841 
1879 2277 1881 1848 1883 2242 1850 1889 1846 
1852 1887 1856 1854 2293 2254 1861 1860 1858 
1859 1864 1899 2261 2258 1905 1863 1868 2265 
2262 1866 1867 1870 1872 2270 1907 1875 1911 
1913 1874 1876 2273 1915 2274 1844 2281 1880 
1917 2278 1882 1888 1884 1925 1923 1929 1886 
1892 1891 1890 1927 2286 2289 2290 1896 1895 
1935 2294 1898 1900 1904 2298 1937 1939 2341 
2301 2297 1902 1903 1943 1908 2302 2305 1947 
1912 2349 2306 2309 2310 1916 2353 1951 1955 
1918 1957 1919 1920 1959 2317 1922 1921 1928 
1963 2325 2365 1930 1969 1932 2326 1931 1933 
1973 1936 2330 1934 1975 2333 1938 1940 1944 
2338 1979 2337 1948 2345 2385 2346 1952 2389 
1987 1991 1956 1995 2350 1924 1960 2397 2005 
1968 1964 1966 1611 1967 1972 1613 1970 1974 
1971 1976 1980 2378 1983 1984 2382 1988 2025 
1989 2386 1990 1992 2029 1993 1635 1996 2393 
2394 1997 1961 1639 1998 1999 2000 2361 2008 
2043 2402 2006 2009 2010 2012 2047 2007 2449 
2053 2014 2013 2016 2011 2413 2020 2057 2019 
2024 2418 2421 2461 2417 2422 2028 2465 2030 
2032 2031 2034 2033 2036 2073 2075 2041 2004 
2040 2079 2077 2042 2048 2044 2083 2485 2081 
2050 2052 2450 2091 2087 2489 2051 2056 2055 
2095 2454 2060 2059 2458 2063 2065 2064 2068 
2462 2501 2067 2069 2072 2509 2466 2070 2074 
2071 2470 2111 2113 2076 2078 2117 2080 2119 
2478 2477 2082 2088 2084 2525 2123 2482 2092 
2529 2490 2093 2096 2094 2494 2100 2099 2498 
2101 2505 2102 2103 2104 2108 2109 2107 2506 
2112 2149 2147 2115 2151 2114 2116 2153 2118 
2120 2157 2159 2122 2121 2125 2128 2522 2127 
2132 2526 2530 2167 2133 2134 2131 2136 2135 
2175 2138 2139 2140 2144 2179 2145 2142 2185 
2143 2148 2545 2585 2146 2187 2152 2150 2155 
2154 2156 2195 2554 2158 2124 2160 2199 2162 
2201 2163 2168 2203 2166 2172 2171 2569 2173 
2170 2174 2176 2213 2211 2215 2177 2178 2180 
2219 2181 2182 2183 2184 2581 2188 2223 2582 
2186 2190 2191 2229 2192 2196 2633 2590 2197 
2161 2164 2198 2200 2208 2243 2204 2206 2249 
2207 2212 2247 2210 2610 2253 2216 2251 2214 
2217 2220 2218 2224 2617 2657 2618 2225 2222 
2622 2228 2665 2227 2626 2232 2629 2271 2669 
2231 2235 2236 2275 2630 2634 2239 2240 2677 
2279 2638 2248 2283 2645 2642 2681 2246 2252 
2646 2250 2255 2256 2295 2650 2654 2257 2260 
2697 2259 2264 2299 2658 2661 2263 2662 2268 
2267 2269 2266 2272 2311 2666 2313 2276 2713 
2315 2674 2244 2280 2678 2319 2717 2282 2285 
2288 2284 2321 2685 2287 2291 2292 2689 2331 
2686 2296 2335 2694 2693 2733 2300 2304 2698 
2741 2339 2303 2702 2308 2343 2701 2705 2307 
2706 2312 2351 2749 2314 2316 2355 2753 2714 
2318 2320 2359 2322 2323 2328 2329 2327 2332 
2369 2726 2334 2336 2734 2377 2381 2340 2344 
2738 2342 2348 2785 2347 2352 2750 2789 2746 
2354 2356 2357 2324 2358 2360 2399 2758 2362 
2001 2003 2363 2368 2765 2364 2762 2366 2371 
2367 2372 2770 2370 2374 2375 2373 2376 2773 
2015 2774 2380 2379 2384 2023 2425 2383 2782 
2388 2387 2027 2786 2392 2390 2035 2391 2395 
2396 2039 2398 2400 2405 2408 2404 2403 2401 
2441 2801 2805 2409 2410 2406 2412 2411 2810 
2407 2416 2414 2853 2420 2818 2419 2424 2428 
2463 2822 2821 2825 2429 2426 2467 2427 2432 
2830 2430 2434 2473 2436 2438 2440 2838 2479 
2437 2877 2445 2443 2442 2448 2483 2451 2447 
2446 2452 2487 2491 2453 2456 2455 2495 2850 
2457 2460 2459 2897 2499 2858 2861 2464 2862 
2468 2503 2469 2507 2472 2909 2869 2474 2475 
2471 2476 2515 2874 2444 2480 2517 2488 2882 
2925 2486 2492 2890 2493 2496 2533 2933 2893 
2894 2497 2500 2898 2502 2905 2504 2543 2941 
2902 2508 2549 2906 2547 2512 2513 2511 2510 
2551 2514 2913 2516 2553 2481 2518 2519 2557 
2484 2520 2559 2957 2565 2523 2528 2524 2563 
2961 2527 2532 2567 2929 2969 2531 2536 2535 
2534 2575 2930 2537 2538 2577 2541 2539 2540 
2544 2938 2542 2942 2548 2583 2546 2587 2589 
2552 2550 2555 2556 2593 2950 2561 2521 2558 
2560 2599 2958 2562 2568 2564 2603 2962 2566 
2609 2572 2607 2573 2570 2574 2571 2576 2613 
2621 2578 2579 2580 2584 2619 2982 2623 2588 
2625 2586 2592 2631 2986 2591 2595 2594 2596 
2635 3033 2993 2994 2637 2601 2597 2598 2600 
2639 2998 3037 2605 2602 2608 2643 2611 2606 
2612 3010 3013 2615 2616 2614 3014 2620 2624 
3018 3022 2628 2663 3065 3025 2627 3026 2667 
2632 2671 2636 3073 2604 2640 2641 3038 2648 
2683 2649 2647 3049 2652 3046 2653 2651 2655 
2656 2695 2659 2660 2664 3101 3057 3058 3061 
3062 2668 2670 3066 2672 2707 2709 2711 3109 
2673 2675 2676 2715 2679 2644 2680 2719 3117 
2682 2688 2723 3082 2687 2692 3089 3090 2691 
2690 2696 3094 3133 2699 2700 2704 3098 2745 
2703 3102 2708 3145 2712 3149 3106 2710 2716 
2755 2751 2684 2718 2720 2757 3157 2721 2725 
2722 2728 2724 2731 2729 2727 2732 3126 2730 
3129 3130 2736 2735 2775 2737 2740 2739 2744 
3138 2742 2743 2783 2748 3181 2747 3146 2752 
3189 2754 2793 2756 3154 2791 2795 2759 2760 
2763 2768 2764 3161 3165 2767 3169 2769 2766 
2772 2809 2813 2771 2776 3170 2415 3174 2777 
2778 2817 2779 2780 3178 2781 2423 2784 2788 
2790 2787 3186 2829 2431 2792 2433 3190 2794 
2435 2796 3193 2797 2798 2439 2761 2799 2800 
3197 3198 2802 2808 2803 3202 3205 2806 2812 
2807 2811 2814 2816 3210 2815 3214 2820 2824 
2819 3218 3217 2865 3222 2828 2826 3226 2832 
2831 3229 3230 2873 2833 2871 2834 2836 2835 
3234 2841 2804 2840 2842 3245 2843 2845 2848 
2883 2849 2847 2846 2852 3249 2851 2856 3250 
2855 2854 3253 3254 2857 2860 2859 2864 2899 
3257 3258 2901 3265 2863 2868 2903 3262 2866 
2867 3266 2872 2870 2875 3270 2911 2876 2915 
3274 2844 2879 2878 2880 2917 2919 2885 2888 
2884 2923 2889 2886 2887 2892 3286 2891 2896 
2895 3294 2900 3301 2904 2945 3302 2943 2908 
3305 2907 3309 2947 2912 2914 2910 2916 2881 
2918 2920 2959 3318 2922 2965 2921 2928 3322 
3361 2926 2927 2932 2967 2934 2931 2936 3330 
2935 2973 2939 2937 2940 3337 2985 2944 2948 
2949 2946 2989 2952 2991 2953 2955 2951 2954 
2956 2924 2960 2997 3358 3397 2963 2968 2964 
3362 3005 3405 2966 3009 2972 2971 3011 3370 
2974 2975 2970 2976 3015 3413 3373 2978 3021 
2977 2979 2980 3019 2981 2983 2984 2988 3029 
2987 3389 2992 3031 3390 3386 2995 2990 2996 
3035 3433 3394 2999 3000 3039 3003 3002 3008 
3445 3006 3007 3012 3051 3409 3053 3016 3414 
3055 3453 3017 3020 3417 3024 3418 3023 3421 
3063 3028 3027 3429 3426 3030 3032 3067 3034 
3430 3036 3075 3001 3041 3004 3040 3079 3045 
3043 3042 3048 3485 3050 3449 3047 3052 3446 
3489 3054 3056 3454 3091 3493 3095 3060 3059 
3064 3458 3461 3457 3068 3105 3465 3103 3505 
3107 3069 3469 3072 3070 3074 3071 3470 3076 
3115 3077 3078 3044 3080 3081 3119 3085 3083 
3088 3525 3482 3086 3087 3092 3131 3486 3093 
3096 3490 3135 3494 3097 3137 3099 3100 3497 
3104 3501 3502 3108 3143 3545 3147 3110 3111 
3112 3549 3151 3506 3153 3113 3114 3116 3513 
3121 3118 3084 3120 3159 3518 3123 3125 3122 
3128 3522 3124 3127 3132 3167 3529 3526 3173 
3136 3134 3534 3139 3140 3144 3179 3581 3541 
3538 3141 3142 3542 3148 3183 3187 3546 3152 
3550 3589 3150 3155 3156 3191 3593 3553 3158 
3521 3160 3557 3163 3561 3162 3168 3164 3166 
3172 3171 3570 3573 3176 3175 3574 3213 3221 
3177 3180 3184 3578 3577 3182 3185 2823 3585 
3582 3188 2827 3586 3192 3590 3195 3194 3196 
3233 2837 3199 2839 3200 3208 3204 3605 3209 
3206 3212 3610 3211 3247 3207 3606 3216 3613 
3614 3220 3617 3224 3618 3621 3225 3223 3622 
3228 3665 3625 3267 3232 3231 3626 3669 3236 
3630 3238 3240 3279 3239 3243 3242 3248 3246 
3252 3287 3251 3256 3255 3295 3654 3657 3261 
3260 3259 3264 3658 3299 3661 3263 3662 3268 
3701 3269 3271 3272 3670 3311 3666 3273 3275 
3276 3277 3278 3241 3244 3280 3281 3319 3641 
3285 3283 3282 3288 3321 3325 3323 3291 3289 
3292 3327 3290 3293 3693 3296 3694 3297 3298 
3697 3300 3304 3303 3308 3702 3745 3306 3307 
3312 3349 3313 3314 3315 3310 3316 3355 3317 
3357 3284 3320 3359 3718 3365 3328 3363 3329 
3326 3332 3726 3729 3331 3335 3333 3336 3730 
3334 3375 3734 3341 3377 3338 3339 3340 3344 
3379 3381 3343 3345 3342 3348 3385 3346 3347 
3350 3352 3750 3391 3353 3351 3393 3354 3356 
3793 3324 3360 3399 3758 3368 3364 3403 3765 
3762 3369 3367 3366 3372 3770 3371 3376 3773 
3374 3411 3380 3378 3778 3419 3382 3383 3384 
3388 3387 3392 3431 3395 3790 3396 3435 3794 
3401 3398 3400 3797 3798 3805 3402 3408 3443 
3441 3410 3407 3406 3412 3849 3809 3806 3416 
3451 3415 3814 3420 3424 3857 3821 3425 3422 
3423 3428 3861 3463 3825 3865 3427 3432 3826 
3434 3471 3436 3873 3833 3834 3438 3437 3404 
3439 3440 3479 3837 3481 3442 3448 3444 3842 
3447 3452 3850 3450 3456 3491 3455 3893 3459 
3460 3464 3858 3462 3862 3468 3466 3869 3467 
3866 3509 3472 3511 3473 3474 3475 3476 3477 
3478 3480 3517 3878 3881 3483 3488 3885 3487 
3492 3886 3889 3533 3496 3495 3894 3531 3535 
3498 3897 3500 3499 3537 3503 3504 3902 3508 
3905 3510 3507 3547 3512 3551 3906 3910 3514 
3515 3516 3555 3917 3519 3484 3520 3918 3523 
3528 3524 3925 3922 3527 3532 3926 3929 3530 
3933 3536 3934 3930 3540 3539 3544 3543 3583 
3548 3945 3942 3941 3946 3552 3554 3556 3954 
3591 3595 3993 3558 3559 3957 3560 3958 3921 
3565 3201 3562 3203 3563 3568 3564 3567 3569 
3566 3572 3215 3571 3576 3575 3579 3580 3219 
3978 3584 3981 3588 3985 3982 3227 3587 3592 
3986 3989 3629 3633 3235 3594 3596 3237 3598 
3599 3597 3637 3600 3997 3602 3608 3603 3643 
3604 6 3609 3649 3612 3607 9 3616 3651 
3655 53 3611 3620 18 3619 22 3624 3623 
3628 30 3632 3671 3667 3631 3634 3673 34 
3636 3635 3638 38 3640 3679 3601 45 42 
85 3685 3645 3642 3648 3683 49 46 3689 
3647 3646 3652 3650 93 3653 3656 54 3695 
3691 57 3659 3660 3699 61 62 101 65 
3663 3664 3668 105 3709 69 66 3672 3711 
3713 3674 73 3675 3676 3677 3678 77 3644 
3680 3681 3719 3682 3688 3684 3723 89 3690 
3687 3686 3692 129 90 94 3696 3735 3698 
3741 3700 3739 137 3705 3703 141 3704 3708 
106 3706 3707 3747 3710 3749 3712 3751 3753 
3714 3715 3716 3717 118 3720 3721 125 122 
3725 3722 3728 3724 165 3763 3727 3732 130 
3733 133 3731 3736 3775 138 3777 3781 3738 
3737 177 3740 3744 3779 3742 3743 142 3785 
3748 3783 3746 3789 3752 3754 3755 3756 3795 
3761 3757 158 3759 3760 3768 3803 3769 3766 
169 3767 166 3772 3807 3813 3771 3776 3774 
3811 3780 181 3819 3782 3784 3788 221 186 
190 3786 3787 189 3792 3831 194 193 3791 
3796 233 198 3799 3764 3800 3801 205 202 
3802 3808 3845 3812 3810 3815 3853 3816 214 
3855 3817 3818 3820 3824 3859 225 3822 3823 
3828 226 3830 3829 3827 3832 3871 230 234 
3835 3836 3875 238 3804 3838 3839 3840 285 
3843 3848 3841 3844 289 3846 3847 3852 253 
250 3851 3856 3854 254 3895 3901 3860 3864 
3899 265 262 3863 3868 266 309 3867 270 
3872 3909 3907 273 3870 3874 3876 3877 3879 
3880 282 281 325 3882 3883 3888 3884 3887 
3892 3931 3890 3891 3896 3935 333 3937 297 
3900 3898 298 3904 302 341 3903 305 3908 
306 3911 310 3912 3947 313 3913 3915 3914 
3916 3955 3951 353 317 3919 318 3920 3959 
322 3923 3928 3927 3969 3932 3967 3971 3936 
3975 3939 3940 338 3938 3944 3977 3979 342 
3943 3983 3948 385 349 389 3949 346 3952 
350 393 3950 3953 3956 3991 3995 358 3924 
3960 365 361 362 3965 3962 3963 3961 3968 
3964 369 3970 3966 3972 3973 3976 3974 3615 
377 3980 378 382 3984 3988 390 3627 3987 
386 29 3992 394 33 3990 3994 3996 398 
3998 3639 3999 4000 
type 1 4000 int
1 1 1 1 1 1 1 1 1 
1 1 1 1 1 1 1 1 1 
1 1 1 1 1 1 1 1 1 
1 1 1 1 1 1 1 1 1 
1 1 1 1 1 1 1 1 1 
1 1 1 1 1 1 1 1 1 
1 1 1 1 1 1 1 1 1 
1 1 1 1 1 1 1 1 1 
1 1 1 1 1 1 1 1 1 
1 1 1 1 1 1 1 1 1 
1 1 1 1 1 1 1 1 1 
1 1 1 1 1 1 1 1 1 
1 1 1 1 1 1 1 1 1 
1 1 1 1 1 1 1 1 1 
1 1 1 1 1 1 1 1 1 
1 1 1 1 1 1 1 1 1 
1 1 1 1 1 1 1 1 1 
1 1 1 1 1 1 1 1 1 
1 1 1 1 1 1 1 1 1 
1 1 1 1 1 1 1 1 1 
1 1 1 1 1 1 1 1 1 
1 1 1 1 1 1 1 1 1 
1 1 1 1 1 1 1 1 1 
1 1 1 1 1 1 1 1 1 
1 1 1 1 1 1 1 1 1 
1 1 1 1 1 1 1 1 1 
1 1 1 1 1 1 1 1 1 
1 1 1 1 1 1 1 1 1 
1 1 1 1 1 1 1 1 1 
1 1 1 1 1 1 1 1 1 
1 1 1 1 1 1 1 1 1 