# vtk DataFile Version 4.0
Generated by LAMMPS
ASCII
DATASET POLYDATA
POINTS 4000 float
4.58283 -0.498648 3.64243 6.43862 -0.74375 1.69116 4.20439 -2.48745 1.66798 
6.20709 -2.84869 3.79879 4.43545 -0.474836 -0.265947 6.29599 -2.9144 -0.441924 
10.1899 -1.5892 1.76711 8.26143 -1.02944 3.75322 10.4377 0.615153 3.74852 
7.95035 -3.29703 1.75299 10.1475 -3.64381 3.70434 10.6626 0.331258 -0.4165 
12.4612 -0.142261 1.67505 14.3544 -2.34742 1.62542 12.2377 -2.03388 3.73637 
14.5209 -0.324909 3.74701 12.4363 -2.15255 -0.318226 14.493 -0.494965 -0.513006 
16.5828 -0.851227 1.50596 18.1904 -3.14456 1.66702 18.465 -1.13188 3.62366 
20.1569 -3.54825 3.65043 16.2354 -2.58702 3.57214 20.3206 -3.3825 -0.548147 
16.3711 -2.8187 -0.467323 18.5794 -1.05512 -0.534846 20.3946 -1.49011 1.65062 
24.1906 -2.07418 1.32034 22.2968 -1.87417 3.53534 24.6926 -0.101809 3.66839 
22.7083 0.084651 1.45359 22.321 -1.85496 -0.695192 28.0265 -2.77823 1.59356 
26.3198 -0.427335 1.48657 28.1633 -0.625852 3.616 26.136 -2.47355 3.58326 
26.19 -2.52051 -0.465006 24.6687 -0.0409961 -0.618323 30.2659 -1.23312 1.76611 
32.2525 -1.59646 3.67857 29.9091 -3.21415 3.68395 29.889 -3.45393 -0.34909 
32.3857 0.631917 1.72254 32.2293 -1.56442 -0.193664 36.1813 -0.250244 1.77513 
34.1332 -1.83671 1.79961 36.171 -2.17441 3.6519 34.334 0.221586 3.73779 
34.2796 0.24652 -0.402085 4.71706 1.61618 1.5482 6.97812 3.38153 1.3719 
6.68228 1.20625 3.81021 4.91153 3.44348 3.52492 4.99582 3.63596 -0.486009 
6.84225 1.22911 -0.477311 8.519 0.868505 1.52243 9.43421 4.79823 1.60737 
10.8989 2.42542 1.73001 8.75196 2.83155 3.64242 11.0039 4.321 3.86295 
9.04682 2.78833 -0.334209 14.9021 1.47864 1.65503 12.9884 4.1674 1.52537 
12.9244 1.99332 3.62205 15.0382 3.63448 3.69565 15.0651 3.53259 -0.368862 
12.8538 1.89185 -0.350781 18.7066 0.918694 1.50245 17.0921 3.31926 1.46963 
19.0663 2.94168 3.63714 16.7624 1.33686 3.52008 19.152 5.07722 1.65165 
20.6609 0.516427 -0.428673 20.8438 0.584328 3.63109 20.9176 2.38246 1.73957 
23.0735 4.15359 1.50208 22.9583 2.09452 3.64318 21.1898 4.66481 3.53504 
22.7882 2.28422 -0.545496 21.179 4.50081 -0.419571 24.5907 1.99086 1.43192 
26.9125 3.66071 1.6049 28.4435 1.45648 1.71398 24.9448 3.95138 3.63023 
26.4972 1.66439 3.60837 26.6381 1.70856 -0.382703 24.892 3.95139 -0.662351 
30.4838 0.837404 3.60549 30.6623 2.89813 1.48718 28.6896 3.21505 3.78973 
32.5102 2.55055 3.63933 32.8335 4.81373 1.81241 30.7956 4.96607 3.6749 
32.6391 2.59696 -0.242172 28.8191 3.27747 -0.556462 30.8373 5.11433 -0.448264 
36.7507 3.89549 1.64058 34.5145 2.42729 1.62363 36.2549 2.18393 3.65141 
34.7718 4.46623 3.7379 34.7479 4.24643 -0.500867 7.11725 5.13139 3.2407 
5.02928 5.82801 1.64182 3.49509 8.30775 1.5499 5.70337 7.76406 3.55857 
7.73296 7.0903 1.48776 8.04952 9.21247 3.68842 11.5258 6.40601 1.75768 
9.69398 9.00966 1.56527 9.44635 6.76441 3.75771 9.42776 6.97633 -0.476824 
11.7781 8.41496 3.60263 11.6761 8.61035 -0.505798 15.3029 5.78394 1.64035 
13.6072 8.13821 1.58765 13.4456 6.03579 3.71852 15.7519 7.80766 3.68853 
17.6184 7.61735 1.71216 19.6954 9.20901 1.81859 17.3001 5.39729 3.6917 
19.505 7.13177 3.75378 17.8562 9.56489 3.60588 21.3621 6.78991 1.40546 
23.5952 8.29494 1.61146 23.1872 6.47046 3.48942 21.6527 8.92546 3.57944 
21.5071 8.87751 -0.363436 25.2239 6.02254 1.57837 27.134 5.63754 3.70812 
27.3497 7.82208 1.61739 25.3698 8.07475 3.68308 27.0372 5.58191 -0.405546 
25.6778 8.05554 -0.464336 31.0377 6.9303 1.66107 28.9502 5.37743 1.80081 
31.287 9.23706 3.81752 29.2918 7.44673 3.78901 29.6046 9.50906 1.64225 
31.5167 9.10194 -0.419236 37.0297 5.90106 3.7811 35.1077 6.28688 1.53351 
33.5052 8.77256 1.69657 33.085 6.81015 3.61975 35.3805 8.38264 3.6916 
37.0492 5.96083 -0.442583 35.2054 8.47516 -0.559003 5.95882 9.6506 1.76622 
4.20384 12.1447 1.68062 3.86727 10.1726 3.82953 6.1285 11.5393 3.68657 
3.90917 10.1599 -0.531411 7.94226 11.2451 1.50479 10.2328 12.8367 1.5765 
8.48292 13.0888 3.60995 10.1744 10.8176 3.61171 12.182 10.5996 1.58561 
14.2301 12.1659 1.67334 14.0607 10.0997 3.58073 15.9419 9.95322 1.58925 
12.2412 12.5936 3.76325 16.1072 11.6792 -0.504159 16.2052 11.9 3.66018 
18.1188 11.5527 1.54235 19.9382 11.3436 3.7795 18.3414 13.6723 3.74478 
20.0892 13.388 1.41664 18.2791 13.5333 -0.437424 22.0334 10.773 1.62 
23.7891 10.6423 3.70399 24.0974 12.5826 1.65368 22.1967 12.9079 3.57143 
22.2569 12.9873 -0.484598 25.5526 10.1591 1.73305 27.9973 11.7691 1.6099 
25.9496 12.3318 3.69198 27.6836 9.8144 3.57213 27.591 9.8838 -0.306367 
25.8535 12.2845 -0.387244 31.6789 11.2933 1.58877 30.0367 13.5239 1.60747 
29.6922 11.6894 3.70358 32.06 13.0575 3.78675 29.8384 11.3748 -0.612265 
35.5604 10.5035 1.62629 33.8934 12.7544 1.5105 33.5714 10.7549 3.54966 
35.8308 12.4682 3.78472 33.6212 10.8807 -0.401787 6.28649 13.641 1.64807 
4.56079 14.0451 3.80022 4.89908 16.2265 1.6925 7.06031 17.5714 1.70695 
6.76905 15.7737 3.80777 8.66591 15.3501 1.63918 10.6765 17.1002 1.71606 
10.4442 14.7482 3.65556 8.87509 17.1955 3.83027 12.5387 14.4895 1.60672 
14.6108 16.3354 1.58266 14.3532 14.2237 3.56171 12.8139 16.5712 3.54266 
14.4244 14.1574 -0.326849 16.3288 13.8225 1.70093 18.4564 15.5096 1.57436 
18.5492 17.741 3.57475 16.5442 16.0403 3.53707 16.6585 18.139 1.65595 
18.6251 17.6635 -0.498958 16.4558 15.8324 -0.376262 22.1684 15.1026 1.72072 
20.5001 17.5616 1.63792 20.316 15.4007 3.66756 22.4918 17.0331 3.60825 
24.1811 14.6059 3.63008 20.2994 15.3962 -0.309929 22.5435 16.9049 -0.257327 
24.4969 16.4648 1.64113 28.1612 13.9838 3.91683 26.2232 14.2827 1.63794 
26.4465 16.2588 3.78888 28.331 15.9259 1.66195 28.5138 17.7874 3.79957 
28.1053 13.898 -0.505628 26.2964 16.3209 -0.248195 32.2864 15.2526 1.56465 
30.3764 17.5917 1.57577 32.4576 17.4488 -0.323864 30.4376 15.5869 3.45254 
32.6842 17.4831 3.56319 30.4436 15.5696 -0.469469 36.2971 14.653 1.74967 
34.5554 16.772 1.69203 36.4406 16.4218 3.76065 34.102 14.8269 3.72817 
5.22552 20.2651 1.66279 7.19693 19.8647 3.75383 5.61231 22.2125 3.70369 
7.39621 21.7131 1.6535 5.01626 18.2768 3.73278 7.29889 19.6597 -0.444847 
9.32722 19.522 1.6145 11.296 21.3956 1.64735 10.9272 18.8107 3.83324 
9.51959 21.3216 3.77208 9.39562 21.3957 -0.488799 12.9231 18.7185 1.79663 
15.0612 20.6824 1.73128 14.8516 18.4089 3.81719 13.1127 20.8764 3.73911 
14.6688 18.4307 -0.289293 15.1836 22.6333 3.86573 18.7455 19.9094 1.50087 
19.1423 21.9025 3.6985 17.1854 22.2417 1.90014 17.069 20.1692 3.74491 
22.6746 19.0373 1.4706 20.7871 19.4825 3.70214 21.1285 21.4404 1.57985 
23.0716 20.9336 3.7872 20.8465 19.5112 -0.506087 26.6002 18.3439 1.57748 
24.6921 20.7463 1.64475 27.2461 22.2824 1.64553 24.5442 18.5612 3.37051 
26.7475 20.2751 3.43593 27.1707 20.2802 -0.423835 28.8251 20.0847 1.60119 
30.7959 19.6382 -0.552797 31.0429 21.6963 1.59991 32.9757 19.2979 1.53292 
30.6823 19.676 3.57124 29.2528 21.9164 3.78847 33.2064 21.4244 3.93629 
36.7233 18.4933 1.62327 35.2253 20.7498 1.73519 37.0277 20.6113 3.76128 
34.9515 18.9026 3.72583 33.1084 21.1158 -0.377015 5.66991 23.9876 1.50073 
5.99035 26.1727 3.62967 7.58726 23.8134 -0.550277 3.68975 24.7014 3.67834 
3.91539 26.5155 1.59551 3.84565 24.4094 -0.672531 7.68273 23.8793 3.81375 
3.52661 22.6935 1.5792 5.85736 26.1538 -0.437894 7.92632 25.7748 1.68353 
9.53877 23.621 1.49731 11.3347 23.358 3.84969 11.6113 25.4819 1.75988 
9.64019 25.7859 3.80918 9.71172 25.8197 -0.438796 13.3808 23.1362 1.72221 
15.4816 24.7839 1.8982 13.3668 24.9732 4.10085 13.7536 27.2118 1.72557 
15.6913 26.5659 3.72472 17.7135 26.3004 1.84828 19.3837 23.8646 1.69775 
17.4179 24.2151 3.75005 19.6133 25.8489 3.74976 23.2825 23.0184 1.7793 
21.4372 25.5466 1.53192 21.2941 23.5785 3.9195 23.3219 25.2874 3.47693 
25.2364 22.7197 3.84724 25.5408 24.6868 1.66017 27.7059 26.3136 1.64514 
27.3245 24.4222 3.635 25.796 26.8637 3.70074 29.3799 23.9273 1.6306 
31.6527 25.5617 1.61188 31.5613 23.6843 3.5504 29.6712 25.9446 3.67865 
29.8109 26.0173 -0.474524 33.4044 23.0795 1.63263 35.3634 24.9535 1.58848 
35.4076 22.8248 3.72284 33.7995 25.2019 3.82743 35.2166 22.8963 -0.432068 
33.6251 25.2633 -0.459791 6.07239 28.2617 1.57282 4.459 30.6606 1.45081 
4.36342 28.7142 3.56565 6.38513 30.4884 3.51083 6.30448 30.4706 -0.390742 
4.07879 28.8018 -0.479211 7.88272 28.0694 3.6825 9.82791 27.6697 1.69243 
8.13668 30.2713 1.64195 10.0807 29.777 3.82245 7.85667 27.9986 -0.366096 
11.7763 27.4126 3.82631 11.9573 29.3686 1.83514 15.9146 28.732 1.81449 
14.0525 29.0768 3.77879 14.2461 31.1166 1.63662 12.282 31.4482 3.88523 
18.0918 30.3513 1.60126 19.7756 27.9678 1.49823 16.274 30.8196 3.75906 
18.0402 28.2777 3.74049 20.1747 30.0221 3.36146 20.0932 29.837 -0.450217 
17.8379 28.3958 -0.352875 23.9036 27.1425 1.63562 22.0931 29.5529 1.56074 
24.1137 29.1816 3.4216 21.7574 27.5028 3.50168 24.298 31.161 1.63318 
26.1175 28.4922 1.52415 28.1309 28.4657 -0.381717 28.2636 30.3993 1.50428 
28.1478 28.3225 3.73312 26.2607 30.7712 3.37233 29.9786 27.9565 1.67255 
32.3164 29.5026 1.51512 31.8529 27.6798 3.71836 30.3362 29.9813 3.62318 
30.3744 30.2236 -0.470586 33.8902 27.2479 1.47937 35.8573 28.9836 1.61765 
35.741 27.1163 3.79507 34.0006 29.2746 3.63635 36.0353 31.1439 -0.489215 
34.2383 31.1957 1.63879 36.2425 31.0473 3.57968 35.7811 26.8865 -0.642763 
6.52313 32.5756 1.55574 4.93246 35.0105 1.63258 4.59465 32.6665 3.67087 
6.70884 34.5334 3.60153 4.59185 32.8386 -0.476822 10.4332 31.6749 1.65044 
8.58611 34.0992 1.62891 8.44534 32.075 3.75065 10.6656 33.6327 3.8916 
12.6184 33.5409 1.78213 14.8423 35.0029 1.68575 12.7808 35.4573 3.67608 
14.3625 33.1172 3.76178 16.5492 32.8133 1.76844 18.8355 34.4139 1.6094 
16.6453 34.5938 3.80781 18.4589 32.347 3.62271 18.5324 32.3485 -0.354005 
22.4218 31.6595 3.607 22.3365 31.459 -0.484394 20.4633 32.1007 1.5829 
22.7271 33.569 1.46747 20.6586 34.0455 3.66966 26.5236 32.6928 1.47964 
24.5676 33.2696 -0.458243 24.873 35.0218 1.4982 28.6572 32.4012 3.64701 
24.715 33.4028 3.55762 26.9473 34.6847 3.61157 28.6084 32.3287 -0.527739 
28.9111 34.1672 1.55245 30.5599 31.9135 1.68262 32.56 31.6624 -0.487423 
[...]
POINT_DATA 4000
FIELD FieldData 6
id 1 4000 int
405 7 3 766 2 5 11 409 410 
372 770 10 16 15 413 414 13 14 
20 19 418 421 417 21 17 18 24 
28 422 465 63 22 32 67 469 426 
26 65 36 434 430 33 75 34 4 
40 401 438 77 8 47 406 445 45 
6 12 52 51 449 450 49 55 56 
453 454 54 53 59 60 458 457 99 
61 461 64 103 462 501 62 101 68 
72 71 505 466 69 66 473 76 470 
477 80 474 74 70 113 43 79 402 
441 78 446 48 83 485 87 486 91 
92 489 89 490 90 95 96 493 494 
100 139 497 498 537 104 108 502 541 
102 107 509 112 506 109 106 115 111 
517 513 116 114 442 44 119 478 481 
42 81 88 123 482 525 82 127 132 
526 529 131 136 533 135 530 134 534 
140 538 577 144 138 143 545 148 542 
142 147 151 549 510 149 146 120 155 
514 557 153 84 159 518 521 118 128 
522 163 168 565 167 172 569 566 171 
176 573 570 173 175 179 578 574 180 
178 177 183 184 581 585 546 181 182 
187 553 152 550 156 593 150 189 160 
195 197 554 597 154 124 199 561 558 
203 605 602 208 562 205 207 212 609 
606 206 211 215 613 610 174 614 219 
621 220 617 188 582 223 586 221 191 
192 231 589 590 190 196 194 235 200 
594 633 637 164 239 601 598 237 243 
642 245 641 244 241 645 204 242 248 
247 649 251 646 249 216 255 653 256 
657 259 224 618 622 227 228 625 626 
629 232 271 630 669 236 275 634 673 
273 240 279 638 677 238 277 283 284 
681 682 285 281 685 252 287 689 246 
650 291 260 654 295 693 264 263 658 
661 662 262 258 267 268 666 665 307 
272 270 311 670 709 276 315 674 713 
313 280 319 678 717 318 320 718 278 
288 323 721 725 282 292 327 686 690 
296 300 694 697 299 304 698 701 301 
705 305 303 308 702 312 306 347 710 
706 749 310 351 316 314 753 355 714 
353 359 757 758 360 328 363 722 761 
726 365 324 331 332 729 733 330 326 
335 340 734 737 334 337 339 344 738 
741 345 745 343 348 742 785 352 389 
387 746 789 356 391 350 750 793 754 
354 395 797 399 358 794 397 368 364 
762 765 367 362 336 730 371 769 773 
370 366 375 376 774 777 380 379 384 
778 781 23 383 388 382 782 425 25 
27 392 429 786 29 35 31 396 790 
433 390 394 437 39 400 798 398 37 
407 768 805 1166 411 810 809 772 1170 
416 415 814 813 420 419 817 821 818 
424 463 822 428 865 861 423 432 467 
869 826 471 830 873 475 870 403 440 
801 838 806 408 447 845 412 451 849 
452 850 455 456 853 854 459 460 857 
858 464 503 901 862 468 507 905 866 
472 476 909 877 479 874 443 404 841 
802 846 448 885 487 886 492 491 890 
889 495 496 894 893 499 897 500 898 
539 941 504 543 902 508 512 906 945 
511 480 917 913 515 483 842 444 519 
878 881 488 882 523 925 527 532 926 
929 531 535 536 933 930 934 937 540 
579 938 977 575 544 548 942 981 516 
547 910 949 520 555 957 914 484 918 
559 921 528 922 563 965 568 962 567 
572 969 966 571 576 973 970 580 974 
1017 615 583 584 978 946 985 552 551 
953 950 556 993 560 595 954 997 524 
599 958 961 603 1005 1002 608 607 612 
1006 1009 611 1010 616 1013 651 1053 619 
620 1014 1021 588 587 986 982 591 989 
592 631 990 596 635 994 1033 600 1001 
564 639 998 1037 643 1041 1042 644 1045 
647 648 1049 652 1046 655 1050 1057 656 
623 624 1022 1018 627 628 1025 1026 1029 
632 1030 671 1069 636 675 1034 1073 604 
640 679 1038 1077 683 684 1081 1082 687 
688 1085 1086 1089 691 660 1054 659 664 
1061 1058 663 1062 667 1065 668 1066 672 
1109 1070 711 676 715 1113 1074 680 719 
1078 1117 1118 720 723 724 1121 1122 692 
727 1125 1090 695 700 1097 1093 1094 699 
704 1098 1101 707 703 708 1102 1105 1145 
712 1106 747 1149 1110 751 716 1153 1114 
755 759 1157 1158 728 763 1161 1126 1198 
799 696 731 1133 1129 735 1137 740 1134 
739 744 1141 1138 743 748 1142 1185 752 
1146 787 1189 756 791 1150 1193 1154 795 
760 800 1197 767 764 732 1162 1165 736 
1130 1169 771 1173 776 775 1174 1177 780 
779 1178 784 1181 783 788 1182 825 427 
792 829 1186 436 431 796 1190 833 834 
439 435 1194 837 803 807 1202 1205 811 
1210 1209 1172 1570 816 815 1213 1214 820 
819 1218 1217 1221 824 828 863 1222 1261 
1265 832 867 1226 1269 871 1230 1234 875 
840 804 1238 1277 1206 808 847 1245 812 
851 852 1249 1250 855 856 1254 1253 859 
860 1257 1258 899 864 903 1262 1301 868 
907 1266 1305 872 876 1270 1273 1313 1274 
880 843 879 1241 1278 1246 848 883 1285 
887 1286 891 892 1289 1290 1293 895 896 
1294 1297 900 939 1298 904 943 1302 1341 
908 912 1309 1306 911 915 1310 1314 916 
1242 844 919 1281 1317 888 923 928 1325 
1282 927 932 1326 1329 931 935 1330 936 
1333 1334 940 979 1337 1338 1377 944 948 
1345 1342 947 951 1349 1346 920 955 1357 
1353 884 1318 959 1321 1322 963 1365 968 
1369 967 972 1366 971 976 1370 1373 975 
980 1374 1378 1015 1381 983 984 1382 1385 
1350 987 952 956 1389 1393 960 1354 995 
1397 924 1361 999 1358 1362 1003 1405 1402 
1008 1007 1012 1406 1409 1011 1016 1410 1413 
1414 1019 1020 1417 1418 988 1023 1421 1425 
991 992 1390 1031 1386 996 1035 1394 1433 
1000 1437 1401 964 1039 1398 1043 1044 1441 
1442 1445 1004 1047 1048 1449 1446 1052 1055 
1051 1453 1454 1056 1024 1059 1457 1461 1027 
1028 1426 1422 1429 1032 1071 1430 1036 1075 
1473 1434 1040 1079 1438 1477 1083 1084 1481 
1482 1087 1088 1485 1489 1450 1091 1095 1493 
1060 1064 1063 1458 1497 1462 1067 1465 1068 
1466 1469 1072 1470 1509 1111 1076 1115 1513 
1474 1080 1119 1517 1478 1518 1123 1124 1521 
1525 1092 1127 1486 1529 1096 1100 1533 1494 
1490 1099 1498 1501 1104 1107 1505 1103 1108 
1502 1506 1112 1147 1549 1510 1151 1116 1553 
1155 1514 1120 1159 1160 1557 1558 1128 1163 
1565 1522 1561 1199 1131 1132 1136 1530 1526 
1135 1534 1140 1537 1139 1144 1538 1541 1545 
1143 1148 1542 1585 1152 1589 1187 1546 1550 
1156 1191 1593 1554 1195 1200 1597 1168 1164 
1201 1562 1167 1171 1573 1566 1569 1176 1175 
1574 1180 1577 1179 1184 1581 1578 1183 823 
1188 1225 1582 827 1192 1586 1229 836 831 
1196 1233 1590 1237 839 835 1594 1598 1208 
1204 1641 1602 1610 1207 1211 1606 1609 1216 
1215 1614 1613 1220 1219 1618 1617 1621 1224 
1228 1263 1661 1622 1665 1267 1232 1630 1626 
1236 1235 1634 1633 1240 1279 1677 1638 1247 
1243 1642 1645 1646 1212 1649 1251 1252 1650 
1653 1255 1256 1654 1259 1260 1658 1657 1264 
1303 1701 1662 1271 1268 1272 1669 1666 1670 
1275 1276 1673 1674 1315 1244 1280 1717 1678 
1248 1283 1685 1681 1287 1291 1689 1292 1686 
1690 1295 1296 1694 1693 1299 1697 1300 1339 
1698 1304 1308 1705 1702 1307 1312 1709 1706 
1311 1316 1713 1710 1753 1319 1320 1714 1718 
1288 1682 1323 1725 1729 1327 1332 1726 1331 
1727 1732 1730 1336 1733 1335 1734 1737 1340 
1344 1741 1738 1343 1348 1745 1742 1347 1352 
1749 1746 1351 1355 1356 1750 1754 1284 1721 
1359 1757 1328 1363 1368 1722 1765 1367 1769 
1372 1766 1371 1376 1773 1770 1375 1379 1778 
1380 1777 1740 1781 1384 1383 1785 1782 1388 
1789 1387 1391 1786 1360 1395 1797 1793 1790 
1324 1758 1399 1761 1762 1403 1805 1802 1408 
1407 1412 1806 1809 1411 1415 1813 1774 1814 
1419 1420 1817 1818 1423 1424 1821 1822 1392 
1427 1431 1825 1829 1396 1794 1435 1833 1400 
1364 1801 1798 1439 1837 1443 1444 1842 1841 
1845 1451 1447 1448 1810 1849 1851 1416 1455 
1853 1854 1459 1460 1857 1858 1428 1463 1861 
1865 1826 1432 1830 1471 1869 1436 1475 1873 
1834 1836 1404 1440 1479 1838 1877 1483 1484 
1881 1885 1452 1487 1846 1889 1456 1491 1850 
1893 1496 1495 1464 1499 1894 1897 1901 1467 
1468 1866 1862 1507 1472 1870 1511 1909 1476 
1874 1913 1515 1480 1519 1878 1918 1917 1488 
1523 1882 1925 1492 1527 1929 1886 1890 1531 
1535 1933 1930 1500 1504 1898 1937 1905 1503 
1508 1902 1906 1512 1547 1949 1910 1947 1516 
1555 1914 1551 1953 1520 1559 1957 1921 1560 
1528 1563 1922 1965 1961 1532 1567 1571 1926 
1969 1536 1540 1934 1973 1539 1941 1544 1938 
1944 1945 1543 1548 1942 1985 1946 1552 1587 
1989 1952 1950 1556 1591 1993 1991 1954 1524 
1595 1599 1958 1203 1564 1962 1601 1568 1572 
1605 1966 1970 1575 1576 1974 1977 1580 1579 
1978 1584 1981 1583 1223 1588 1625 1982 1227 
1592 1629 1986 1231 1596 1994 1990 1997 1239 
1600 1998 1637 1604 1643 2041 2002 2043 2004 
1608 1612 2045 2008 2047 2049 1647 1616 2014 
1615 2010 2016 2051 2017 1620 1619 2018 2021 
2020 2019 1624 1628 1663 2022 2024 2028 2027 
2026 1623 1632 1631 2030 2029 2032 2031 1636 
1635 2033 2034 2035 2036 1640 1679 2038 2077 
2040 2079 2042 1648 1644 2044 2083 2081 2048 
1651 1652 2050 2046 2052 2087 1655 1656 2053 
2054 2055 2056 1660 1659 2059 2057 2058 2060 
2061 1664 1668 2065 2062 2063 2068 1667 1671 
1672 2069 2066 2067 2072 2071 1675 2075 2070 
1676 2073 2074 2076 2115 2119 1715 1680 1719 
2078 2117 2080 2085 1683 1684 2082 2084 2118 
2159 1687 2088 2089 1692 2086 1691 2091 2092 
2090 1695 1696 2093 2094 2095 2096 1699 2064 
1700 1704 2097 2101 2099 2104 1703 1708 2105 
2102 2103 2108 1707 1712 2109 2106 2107 2112 
2113 2111 1711 1716 2110 2116 2153 1720 1755 
2114 2120 2157 2155 2123 1688 1723 2125 2121 
2128 2124 2129 2126 2127 2132 1731 2131 2133 
1736 2130 2135 1735 2100 2137 1739 2098 1744 
2141 2139 2144 1743 1748 2145 2142 2143 2148 
1747 1752 2149 2146 2147 2152 2151 1751 1756 
1791 2150 2156 2193 2191 1759 1760 2158 2154 
2160 2195 1728 2122 2165 1763 1768 2168 2163 
1767 2169 1772 2166 2167 2171 1771 1775 2134 
2173 2136 2175 2138 2140 1779 2177 2178 1780 
2181 1783 1784 2184 2185 2183 2182 2189 2188 
1788 1787 1792 2187 2186 2229 1795 1796 2190 
2196 2194 2231 1724 1799 2161 2199 2197 2200 
2162 2205 1803 1808 2202 2207 2203 1804 1807 
1811 2170 2172 2209 2211 1776 1815 2213 2174 
2176 2215 2180 1819 1820 2218 2217 2219 2220 
1823 1824 2221 2222 2223 2224 1827 2227 1828 
1832 2225 2228 2226 2267 1831 1835 2232 2233 
2230 2236 1800 2235 2201 1764 2198 2237 1839 
2164 2239 2204 1843 1844 2241 2208 2245 2243 
2206 1847 1812 2210 2249 2212 2251 2247 1816 
1855 2214 2253 2254 2216 2255 1859 1860 2257 
2258 2259 2260 1863 1864 2261 2263 2264 2262 
1867 1871 2265 2269 2272 2268 2234 1875 2273 
2271 2275 1840 2238 2277 1879 2240 2279 1848 
1883 2285 2242 2283 2248 1852 1887 2246 2289 
2252 2287 2250 1856 1891 1896 2293 2291 2256 
2296 2295 1899 1895 1900 2294 2297 2300 2299 
1868 1903 2301 2298 2303 2305 2304 1907 2308 
2266 1872 2270 2309 1911 2311 2307 1876 2274 
1915 2313 2276 2315 2278 1880 1919 2317 2244 
2280 2281 1888 1923 2325 2282 2288 2323 1892 
1927 2329 2286 2292 2327 2290 1931 1936 2333 
2331 2336 2330 1935 1939 2335 2337 2334 2340 
1904 1908 2339 2302 2341 2343 1912 2306 2349 
2310 2312 2347 1951 2351 1916 1955 2314 2353 
2316 2320 1884 1920 2321 2318 2284 1959 2319 
1928 1963 2365 2322 2328 2363 2361 1924 2324 
1932 1967 1972 2326 2332 2369 2367 2372 1975 
1971 2373 2370 2371 2376 1940 2338 2377 2375 
2379 1943 2345 1948 2342 2344 2348 2346 1987 
2389 2352 2387 1956 2350 2354 2355 2356 2357 
2359 1960 1999 2358 2399 2360 1603 1964 2362 
2001 2003 2364 1968 2006 2005 1607 2366 2368 
2007 1611 2009 1976 2012 2013 2011 1980 2015 
2374 1979 2381 1984 2378 2380 2384 2385 1983 
1988 2382 2025 2383 2023 2388 1627 1992 2386 
2390 2392 2391 1995 1996 2393 2394 2395 2396 
2397 1639 2000 2398 2037 2039 2400 2402 2441 
2404 2443 2445 2408 2447 2446 2449 2451 2452 
2453 2414 2418 2420 2419 2421 2423 2425 2428 
2427 2426 2429 2430 2432 2431 2434 2433 2436 
2435 2475 2477 2438 2440 2479 2481 2442 2444 
2483 2519 2448 2485 2487 2489 2488 2454 2450 
2455 2456 2424 2461 2457 2459 2422 2465 2462 
2463 2468 2469 2466 2467 2472 2471 2470 2473 
2474 2476 2515 2517 2478 2480 2482 2521 2484 
2518 2559 2525 2523 2486 2492 2491 2490 2493 
2497 2460 2495 2464 2458 2501 2499 2504 2502 
2505 2503 2508 2509 2506 2507 2512 2513 2510 
2511 2516 2553 2514 2555 2520 2557 2524 2522 
2558 2599 2528 2526 2529 2527 2531 2533 2494 
2496 2535 2537 2500 2498 2541 2539 2544 2538 
2545 2542 2543 2548 2546 2549 2547 2552 2551 
2593 2550 2556 2591 2554 2597 2595 2560 2561 
2565 2563 2567 2569 2530 2532 2571 2534 2573 
2536 2575 2179 2540 2577 2578 2579 2581 2585 
2582 2584 2583 2588 2192 2589 2587 2586 2592 
2627 2629 2633 2590 2596 2631 2598 2594 2635 
2600 2562 2566 2605 2568 2607 2570 2609 2572 
2611 2613 2574 2576 2615 2580 2617 2618 2619 
2620 2621 2623 2624 2622 2625 2626 2628 2667 
2630 2632 2636 2669 2671 2637 2634 2601 2564 
2639 2602 2603 2645 2608 2643 2606 2610 2649 
2612 2647 2651 2614 2653 2654 2616 2655 2658 
2657 2659 2660 2661 2663 2664 2662 2666 2665 
2668 2707 2705 2673 2670 2675 2672 2638 2677 
2604 2640 2685 2642 2648 2683 2646 2689 2652 
2687 2656 2650 2693 2691 2696 2695 2694 2697 
2700 2699 2701 2698 2703 2704 2702 2706 2709 
2711 2708 2713 2674 2676 2680 2681 2641 2678 
2679 2644 2682 2725 2688 2723 2729 2686 2692 
2727 2733 2690 2731 2736 2730 2734 2735 2737 
2740 2739 2738 2741 2744 2743 2745 2749 2710 
2712 2747 2714 2716 2717 2715 2720 2718 2719 
2721 2684 2722 2728 2763 2761 2724 2765 2726 
2769 2732 2767 2772 2773 2771 2776 2770 2777 
2774 2775 2780 2742 2785 2781 2779 2748 2750 
2746 2752 2751 2753 2754 2755 2756 2759 2757 
2758 2760 2799 2762 2401 2403 2764 2406 2405 
2766 2768 2407 2409 2410 2413 2412 2411 2416 
2417 2778 2415 2784 2783 2786 2782 2788 2787 
2789 2790 2792 2791 2794 2793 2795 2796 2797 
2437 2798 2439 2800 2841 2802 2804 2843 2846 
2845 2808 2847 2849 2853 2851 2816 3182 2821 
2814 2820 2819 2825 2828 2823 2827 2826 2830 
2829 2832 2831 2834 2833 2836 2835 2877 2838 
2840 2879 2881 2842 2844 2883 2885 2848 2852 
2887 2893 2850 2857 2856 2855 2861 2824 2818 
2859 2822 2862 2865 2863 2868 2866 2869 2871 
2867 2872 2875 2870 2873 2876 2913 2874 2917 
2915 2878 2880 2919 2882 2918 2921 2884 2959 
2888 2889 2886 2891 2892 2890 2897 2854 2860 
2895 2864 2858 2901 2899 2904 2905 2902 2903 
2908 2909 2906 2907 2912 2953 2910 2911 2916 
2914 2957 2955 2920 2923 2958 2925 2924 2928 
2926 2929 2927 2931 2894 2896 2933 2900 2935 
2937 2898 2941 2939 2944 2938 2945 2942 2943 
2948 2949 2946 2947 2952 2950 2993 2951 2956 
2991 2954 2997 2995 2960 2922 2965 2963 2967 
2930 2969 2932 2971 2934 2973 2936 2975 2977 
2978 2940 2979 2980 2981 2985 2982 2983 2984 
2989 2988 2986 2987 2992 3029 3033 2990 2996 
3031 2994 2999 2998 3000 2961 2966 3005 2968 
3007 2962 3003 2970 3009 2972 3011 2974 3013 
2976 3015 3017 3018 3019 3020 3021 3022 3023 
3024 3025 3026 3027 3028 3067 3069 3030 3032 
3036 3035 2964 3037 3039 3034 3045 3002 3008 
3043 3006 3010 3049 3012 3047 3051 3014 3053 
3054 3016 3055 3056 3057 3058 3059 3060 3062 
3061 3063 3064 3066 3065 3068 3072 3105 3071 
3073 3075 3070 3001 3038 3004 3040 3085 3042 
3048 3083 3089 3046 3052 3087 3050 3093 3091 
3096 3094 3095 3097 3099 3100 3098 3101 3102 
3103 3104 3109 3107 3111 3106 3074 3076 3077 
3080 3041 3078 3079 3044 3082 3125 3088 3123 
3086 3129 3092 3127 3090 3133 3131 3136 3130 
3134 3137 3135 3140 3138 3139 3141 3143 3108 
3110 3112 3145 3113 3147 3116 3117 3114 3115 
3120 3081 3121 3118 3119 3084 3122 3128 3163 
3161 3165 3132 3126 3169 3167 3173 3170 3171 
3176 3172 3177 3174 3175 3179 3142 3144 3181 
3146 3148 3149 3150 3152 3151 3153 3154 3155 
3156 3159 3124 3157 3160 3158 3199 2801 3162 
2803 3164 2806 3166 2805 3168 2807 2809 2810 
2813 2812 2811 2815 2817 3178 3180 3184 3183 
3186 3185 3188 3187 3189 3190 3192 3191 3193 
3194 3195 3196 3197 2837 3198 2839 3200 3241 
3202 3204 3243 3245 3249 3208 3212 3210 3214 
3216 3215 3221 3217 3218 3220 3219 3225 3224 
3228 3227 3226 3222 3223 3230 3229 3232 3231 
3234 3233 3236 3275 3238 3277 3240 3279 3242 
3281 3248 3244 3247 3246 3251 3252 3250 3254 
3255 3253 3256 3257 3261 3259 3260 3264 3262 
3265 3263 3268 3269 3266 3267 3272 3271 3273 
3270 3274 3313 3276 3315 3278 3317 3280 3319 
3318 3285 3283 3282 3284 3287 3286 3289 3292 
3291 3290 3297 3293 3295 3296 3258 3301 3299 
3304 3302 3305 3303 3308 3309 3306 3307 3312 
3353 3310 3311 3316 3314 3357 3355 3320 3288 
3325 3321 3323 3328 3329 3326 3327 3332 3333 
3294 3331 3335 3300 3337 3298 3341 3339 3344 
3345 3342 3343 3348 3349 3346 3347 3352 3393 
3350 3351 3356 3391 3354 3359 3358 3360 3322 
3365 3363 3368 3330 3367 3371 3369 3334 3373 
3336 3375 3338 3377 3378 3340 3379 3380 3382 
3381 3383 3384 3385 3388 3389 3386 3387 3392 
3390 3395 3396 3394 3429 3324 3397 3361 3399 
3362 3366 3405 3403 3407 3370 3409 3372 3411 
3374 3413 3376 3415 3417 3418 3419 3420 3421 
3422 3423 3424 3425 3426 3427 3428 3432 3433 
3431 3430 3435 3400 3364 3398 3437 3401 3439 
3445 3406 3402 3408 3443 3410 3449 3412 3447 
3414 3451 3453 3454 3416 3455 3457 3458 3459 
3460 3461 3462 3463 3464 3465 3469 3467 3471 
3466 3434 3436 3475 3473 3404 3438 3440 3477 
3479 3442 3485 3448 3483 3446 3489 3452 3487 
3456 3450 3493 3491 3496 3495 3494 3497 3499 
3500 3498 3501 3468 3503 3505 3470 3472 3509 
3511 3507 3513 3474 3476 3515 3441 3481 3478 
3444 3480 3525 3482 3488 3523 3486 3529 3492 
3527 3490 3533 3531 3536 3530 3534 3537 3539 
3535 3502 3541 3504 3508 3545 3506 3549 3512 
3547 3510 3517 3514 3551 3516 3520 3518 3521 
3484 3519 3559 3522 3561 3528 3563 3565 3569 
3526 3532 3567 3572 3573 3570 3571 3575 3538 
3540 3577 3544 3542 3543 3548 3585 3583 3550 
3546 3552 3587 3554 3553 3555 3556 3557 3558 
3524 3560 3599 3597 3201 3562 3203 3564 3568 
3206 3205 3566 3207 3209 3574 3213 3211 3576 
3580 3581 3579 3578 3584 3586 3582 3588 3590 
3589 3591 3592 3235 3594 3593 3595 3596 3237 
3598 3239 3600 3602 3641 3608 3604 9 3610 
3606 3611 3607 3609 3613 3614 3616 3615 3618 
3617 3620 3619 3621 3622 3624 3628 3663 3661 
30 3626 3630 3629 3632 3631 3634 3633 3636 
3635 3675 38 3638 3677 3640 3679 3645 3642 
3643 3647 3612 3650 50 3649 3652 3651 3654 
3653 3655 3656 58 57 3658 3657 3659 3660 
3699 3662 3665 3664 3668 3669 3666 3667 3672 
3671 3670 73 3674 3673 3676 3715 3713 41 
3678 3717 3644 3680 46 85 3646 3648 3681 
3685 3683 3687 86 3689 3692 3691 3690 3686 
94 93 3694 3693 3695 3696 97 98 3701 
3697 3700 3704 105 3705 3702 3703 3708 3709 
3706 3707 3712 110 3753 3710 3711 3716 117 
3714 3718 3719 3720 125 3682 3725 3688 3723 
3728 129 126 3726 3729 3727 3732 130 133 
3731 3730 3733 3735 3736 137 141 3738 3698 
3737 3741 3739 3744 145 3745 3742 3743 3748 
3749 3746 3747 3752 157 3751 3750 3754 3755 
3756 121 3721 3757 3684 3759 122 3765 165 
3722 3763 3768 166 169 3769 3766 3767 3772 
170 3734 3773 3771 3775 3774 3777 3778 3740 
3779 3780 185 3785 3781 3782 3783 3784 193 
3788 3789 3786 3787 3791 3790 3793 3760 3795 
3797 158 161 3758 3724 3761 3799 202 3762 
162 3802 3805 3803 3808 209 3770 3809 3807 
3811 213 3813 3776 3815 214 3814 217 3818 
3817 3819 218 3820 225 3821 3822 3823 3824 
186 3825 3792 3829 3827 233 3794 3796 3833 
3835 3800 201 198 3764 3798 3801 3837 3839 
3845 3841 3843 3844 210 3806 3849 3810 3812 
3847 3851 253 254 3853 3816 3855 3856 3854 
261 3857 3858 257 3859 3860 226 222 3861 
3828 3865 3863 230 3831 229 3826 3830 3832 
3871 3869 234 3834 3836 3873 3875 3804 3877 
3838 3840 3879 3842 3885 3848 3883 289 3889 
3846 3852 3887 293 250 3850 3893 3891 3896 
290 297 3895 3897 3894 3899 3864 266 265 
3901 3867 3862 3868 3866 269 309 3870 3872 
3909 3911 274 3874 3913 3876 3915 317 3917 
3878 3880 3919 3925 3882 3888 325 3923 329 
286 3929 3886 3892 3927 294 3890 3933 3931 
3935 3930 298 3898 3937 3900 3904 302 3907 
3905 3902 3903 3908 3945 349 3949 3906 3912 
3947 3910 3914 3953 3916 3951 3955 357 3881 
3921 3884 3918 3920 321 3959 322 361 3922 
3961 3928 3963 3965 3926 3969 3932 3967 3971 
333 3934 3973 3936 3940 338 341 3938 3939 
3944 3941 342 385 3943 3985 3942 3948 3983 
346 3946 3989 3952 3987 393 3954 3950 3956 
3991 3957 3958 3924 3960 3999 1 3601 3962 
3603 3964 369 3605 3966 3968 3972 373 3970 
374 377 3975 3976 3974 3977 3980 381 378 
3978 3981 3979 3984 3625 3982 3623 3988 386 
3990 3986 3627 3992 3993 3994 3995 3996 3637 
3998 3997 3639 4000 
type 1 4000 int
1 1 1 1 1 1 1 1 1 
1 1 1 1 1 1 1 1 1 
1 1 1 1 1 1 1 1 1 
1 1 1 1 1 1 1 1 1 
1 1 1 1 1 1 1 1 1 
1 1 1 1 1 1 1 1 1 
1 1 1 1 1 1 1 1 1 
1 1 1 1 1 1 1 1 1 
1 1 1 1 1 1 1 1 1 
1 1 1 1 1 1 1 1 1 
1 1 1 1 1 1 1 1 1 
1 1 1 1 1 1 1 1 1 
1 1 1 1 1 1 1 1 1 
1 1 1 1 1 1 1 1 1 
1 1 1 1 1 1 1 1 1 
1 1 1 1 1 1 1 1 1 
1 1 1 1 1 1 1 1 1 
1 1 1 1 1 1 1 1 1 
1 1 1 1 1 1 1 1 1 
1 1 1 1 1 1 1 1 1 
1 1 1 1 1 1 1 1 1 
1 1 1 1 1 1 1 1 1 
1 1 1 1 1 1 1 1 1 
1 1 1 1 1 1 1 1 1 
1 1 1 1 1 1 1 1 1 
1 1 1 1 1 1 1 1 1 
1 1 1 1 1 1 1 1 1 
1 1 1 1 1 1 1 1 1 
1 1 1 1 1 1 1 1 1 
1 1 1 1 1 1 1 1 1 
1 1 1 1 1 1 1 1 1 