# vtk DataFile Version 4.0
Generated by LAMMPS
ASCII
DATASET POLYDATA
POINTS 4000 float
4.60823 1.10049 1.64282 4.41706 -0.518298 3.77301 6.4102 -1.00514 1.86186 
6.543 1.38326 3.70135 3.99692 42.9508 1.75328 8.56485 0.953262 1.89329 
10.3427 -1.31486 1.67882 8.53028 -1.11487 3.67829 10.5817 0.65329 3.54367 
12.5019 0.334469 1.6411 14.3939 -1.95801 1.59953 12.2383 -1.61672 3.72611 
14.6256 0.345534 3.50072 16.7829 -0.0254762 1.53587 18.3432 43.4239 1.48275 
18.9505 1.56851 1.63328 18.7573 -0.217753 3.78568 16.4993 -1.87125 3.62967 
20.4285 43.2267 3.62952 20.5393 -0.797391 1.6034 20.9202 1.38323 3.57846 
24.5926 -1.28802 1.31998 22.3027 42.7814 1.48026 22.7373 -0.879569 3.6404 
22.8487 1.0767 1.44602 24.7514 1.06797 3.58247 28.3446 -1.58296 1.65964 
26.8679 0.83878 1.48423 28.8781 0.565059 3.65963 26.5895 -1.07294 3.64759 
30.6015 -0.062704 1.44938 32.5237 -2.27081 1.16133 32.9129 -0.30254 3.23423 
32.7101 1.7313 1.20014 30.8614 2.12756 3.38835 37.7967 -0.529761 1.77661 
37.7498 -2.33339 3.74097 34.7108 -0.603759 1.26269 2.58703 1.70278 3.41002 
2.5135 3.6787 1.4263 4.77731 5.52193 1.50736 4.86778 3.32112 -0.409526 
2.94036 5.58507 -0.536337 6.79937 3.26526 1.65744 6.92872 5.17371 -0.561132 
4.60719 3.5764 3.5333 3.01753 5.79243 3.6132 8.98507 4.97339 1.60336 
10.827 2.81803 1.5234 10.9758 4.74299 3.59662 8.61914 3.07383 3.55593 
14.9157 2.11646 1.46531 12.9473 4.34566 1.51701 15.2687 6.26925 1.33871 
12.7754 2.52841 3.47074 17.1488 3.79079 1.40846 17.2839 5.84782 -0.705875 
19.1858 5.65073 1.35192 16.9377 2.08483 3.69098 19.1322 3.72783 3.3727 
17.2019 5.92987 3.35866 21.0669 3.27735 1.4336 22.9854 3.28279 3.65278 
21.2356 5.49289 3.58245 23.0468 5.31275 1.54694 24.9081 2.86773 1.47383 
25.2018 5.03386 3.40737 26.9222 4.79623 1.41658 27.0149 2.6878 3.66431 
28.843 2.4705 1.31871 29.2769 4.42574 3.12824 31.1265 4.06091 1.16823 
32.1548 4.61013 3.81325 35.7079 1.96753 1.73429 33.9787 2.3225 3.77155 
36.3901 6.04185 1.43329 34.0028 4.38288 1.48842 34.3664 6.36303 3.51877 
36.1426 4.12288 3.60038 2.585 1.41577 -0.324995 36.251 3.91385 -0.41843 
3.08184 7.83442 1.55036 5.38815 9.49419 1.3885 5.03433 7.55113 -0.606401 
3.25859 9.69589 -0.696919 7.046 7.24116 1.51191 11.1869 6.52658 1.46785 
9.52507 8.95487 1.44654 7.55265 9.2178 -0.581633 11.3435 8.60748 -0.617037 
9.21391 6.81763 -0.544646 13.2449 6.44474 3.31232 13.3319 8.3858 1.51291 
15.6797 10.2422 1.34321 13.7324 10.3603 -0.620671 13.2385 6.31713 -0.585148 
15.4403 8.04361 -0.719646 17.5096 7.84934 1.35181 19.5484 9.85046 0.956584 
17.6562 10.1348 3.38452 19.3956 7.92049 3.42941 19.2532 7.83592 -0.779967 
17.4429 10.009 -0.988921 21.2137 7.71865 1.30231 23.6075 9.13427 1.23557 
23.1988 7.33742 3.32924 21.4801 9.6273 3.28081 25.2249 7.03527 1.31877 
27.3449 6.70286 3.14273 27.4773 8.68489 1.02852 25.8185 10.8666 1.09174 
25.7208 9.10328 3.29233 28.5366 9.37334 3.51236 30.2793 6.97598 3.57459 
32.1629 6.61329 1.51281 29.1876 6.29998 1.06642 30.4255 8.69566 1.46211 
32.8773 10.4508 1.5898 32.586 8.41337 -0.446573 30.8329 10.8224 -0.304251 
36.7067 7.80264 -0.590582 36.7353 8.15608 3.6332 36.7076 10.0362 1.50556 
34.6862 8.15106 1.50497 34.6908 10.0877 -0.45552 3.59271 11.7516 1.46831 
5.47081 11.415 -0.504119 6.14998 13.5256 1.32053 3.66915 13.5783 -0.578728 
9.67325 11.0628 -0.716945 7.77977 11.2368 1.13943 9.89133 13.1727 1.37832 
9.63013 11.0869 3.25723 10.0343 15.0909 41.0295 7.92759 13.3529 41.0987 
11.8873 12.5869 40.9608 11.8053 10.6191 1.42991 13.9506 12.4077 1.35894 
16.0366 14.3914 1.18293 15.9678 12.1802 -0.69529 12.3073 14.6398 1.16355 
14.2762 14.2332 41.1201 18.0178 12.1393 1.18898 20.3434 13.9477 1.18978 
19.9266 11.9019 3.21753 21.7017 11.4611 1.14456 23.8812 11.2993 3.16172 
24.0351 13.128 1.00827 22.2159 13.4885 3.13213 22.6396 15.6217 1.1093 
20.6651 15.8843 3.20386 26.8164 11.5567 3.61164 28.7582 11.2515 1.56586 
26.7788 13.4692 1.67401 27.3013 15.254 -0.404146 29.3041 13.1713 -0.324967 
31.2968 12.8391 1.79902 29.4004 15.0853 1.6629 31.3164 14.7768 -0.320898 
33.4603 14.7251 1.57208 33.0094 12.5674 -0.448523 35.1568 12.2883 1.57729 
37.0203 11.9537 -0.62658 37.3833 14.1704 1.49451 35.3578 14.18 -0.481195 
4.15425 15.7429 1.42204 6.10788 15.4521 -0.940088 6.33456 17.7607 1.284 
4.51182 17.8285 41.0333 6.57894 19.5656 -0.819511 8.13343 15.502 1.37526 
10.5059 17.2233 1.12785 8.41912 17.3145 41.2266 8.47296 19.3741 1.27767 
10.6776 19.1373 40.7994 14.2874 16.5401 1.22146 12.3715 16.6667 40.8916 
12.5131 19.0133 0.951573 18.4936 16.0141 0.919885 16.791 18.0628 1.05969 
18.8122 17.9643 3.01106 18.912 19.9599 0.860574 17.1232 20.3448 2.72047 
23.431 16.1015 3.88324 20.6228 17.808 1.01731 23.5933 18.0206 1.45235 
21.6909 18.3707 3.58268 24.0238 19.7833 -0.497905 25.2424 15.7405 1.59593 
27.63 17.2884 1.68347 26.0992 19.4238 1.64207 28.0445 19.3155 -0.378846 
25.6714 17.6572 -0.422702 31.7323 16.8238 1.56014 29.847 17.2839 -0.358487 
29.9556 19.0316 1.66706 32.0128 18.9005 -0.546246 33.6476 16.4827 -0.459911 
38.0418 18.1776 1.2525 37.7301 16.0007 41.2692 35.5721 16.2639 1.48445 
33.9587 18.6737 1.36747 36.0147 18.2069 41.0778 4.71421 19.8678 1.26516 
6.63755 21.719 1.13678 5.22694 24.1295 1.36417 4.86715 21.8636 -1.1161 
3.10764 22.1386 1.22203 3.15063 24.0282 40.9576 7.19322 23.6827 40.9381 
10.7735 21.2575 1.2124 8.91667 21.4188 40.8452 9.32128 25.5378 40.9152 
8.965 23.498 1.30356 11.5556 24.9998 1.0016 15.0617 20.3261 0.909797 
13.1489 22.8006 0.968626 15.7077 24.8148 0.928906 15.2973 22.4298 2.72264 
13.6798 24.7479 2.96398 17.3225 22.485 0.724583 18.1254 22.8572 3.60155 
18.2361 24.8712 1.45735 19.8354 22.4711 1.32896 20.1703 24.4377 -0.464296 
21.7423 20.182 1.34284 22.3588 23.9573 1.47981 24.1774 21.8601 1.50652 
24.546 23.8013 -0.382364 21.9452 22.1539 -0.598809 28.1449 21.6487 1.3599 
26.4278 23.6211 1.41859 26.1516 21.4497 -0.386803 28.1936 23.3817 -0.710542 
32.2839 20.983 1.26339 30.4179 23.1855 1.22441 30.1107 21.1276 -0.703803 
32.5093 22.907 41.042 36.2731 20.4694 1.09511 34.2297 20.5367 -1.02212 
34.617 22.8204 1.31329 36.4634 22.3389 41.0133 2.83029 20.2191 40.8766 
5.46762 25.9748 41.1654 3.47623 26.5591 1.37884 3.48204 28.2465 41.1016 
5.5589 28.158 1.33599 7.36616 25.8951 1.40476 9.74141 27.5076 1.07506 
7.93601 29.6103 1.28641 10.157 29.314 3.14043 13.7367 26.829 1.03833 
12.0097 29.4563 0.876234 14.7494 29.4558 1.40735 14.7908 27.5399 3.58345 
11.9409 26.8732 3.07853 16.366 27.4741 1.46046 16.6579 29.3663 -0.278552 
18.9157 29.0026 1.71749 18.4824 26.8174 -0.341524 20.6285 26.5498 1.58261 
22.6927 28.2524 1.3898 22.7237 26.1638 -0.429583 20.6007 28.7217 -0.534443 
24.6113 25.9393 1.43507 24.8219 28.0121 -0.641302 28.6749 25.621 1.3 
26.8951 27.8945 1.29894 28.8055 27.4129 41.1635 26.6364 25.6107 41.3783 
32.7793 24.919 1.46493 30.8864 27.3294 1.42729 30.6084 24.9493 41.0626 
32.8996 26.7043 40.8939 34.6614 24.5791 41.0132 36.8291 24.4532 1.17622 
34.8623 26.7954 1.27194 36.9176 28.5233 1.4065 36.8069 26.3386 41.1102 
35.1044 28.6877 40.9792 6.0154 31.7319 1.0134 6.54745 33.8592 2.92923 
3.67926 30.2554 1.04999 4.18029 34.2381 1.1032 10.2329 31.612 0.875815 
8.38606 33.7798 0.912014 8.36452 31.7041 3.19152 12.9601 29.717 3.59302 
12.9899 31.9842 1.5034 14.9603 31.6747 -0.473429 15.3473 33.6721 1.61516 
15.012 31.7199 3.72884 13.2573 34.1084 -0.53102 16.9018 31.3612 1.90764 
19.3162 33.3998 1.7605 19.0153 30.8867 -0.345071 17.1409 33.4198 3.71746 
20.983 30.645 1.52111 23.418 32.3345 1.63092 21.1313 32.6181 -0.46252 
23.0374 30.3928 -0.689492 22.9343 30.4622 3.63672 21.4266 32.6192 3.50841 
29.1055 29.3529 1.39213 25.0159 29.932 1.57032 27.0564 29.6206 -0.637211 
27.2004 31.7427 1.71617 25.404 31.937 41.424 29.3194 31.2961 41.1097 
29.4787 33.3549 1.48829 33.1502 28.9428 1.19759 31.4549 31.1606 1.42876 
30.9763 29.086 41.1479 33.4662 33.1334 1.29139 31.3885 33.3166 41.157 
33.2405 30.9743 41.1382 35.2592 30.861 1.16432 37.3903 32.6186 1.2607 
35.3856 32.6808 40.9148 37.1495 30.6577 40.9669 6.41225 36.3344 1.09431 
4.67402 38.3242 0.967216 4.35887 36.2794 2.94773 37.7232 36.7114 1.14004 
38.2452 38.6636 3.22148 9.14195 34.3619 3.56389 11.2771 34.0221 1.54422 
9.45382 36.2487 1.55728 7.53531 36.5075 3.54455 11.6686 38.035 1.89134 
11.5784 36.122 3.88187 11.7268 36.1432 -0.257665 13.5095 36.0884 1.68133 
15.6308 37.7966 1.784 15.4071 35.6291 -0.323292 13.2246 33.8882 3.59127 
13.7912 37.9698 3.75413 15.3497 35.7046 3.75581 17.4802 35.6577 1.87446 
19.6461 36.9772 1.76431 17.6148 37.6633 3.93488 21.7093 34.6401 1.72578 
24.073 36.3125 1.74404 21.7612 36.8375 3.91253 23.6086 34.4353 3.73969 
25.6614 34.0005 1.58703 27.8922 35.7871 1.63744 25.7445 36.2791 3.97299 
29.813 35.5524 3.63978 28.1246 37.6735 -0.428092 31.6339 35.3054 1.58025 
33.5899 35.0038 41.0671 29.8122 37.6654 1.59766 29.7225 35.568 -0.464363 
32.0766 37.2254 41.2353 33.7904 37.1725 1.53752 35.6288 34.8933 1.12044 
35.5142 36.9478 41.1401 5.9437 38.6995 3.53962 6.19713 40.806 1.71409 
4.04444 41.1019 3.71671 38.438 40.5472 1.02511 6.20506 42.6907 3.51715 
10.1309 40.2677 1.62013 7.91249 38.7825 1.65585 8.32644 42.6987 1.62052 
9.67408 38.4532 3.81465 8.13346 40.5252 3.76021 10.176 42.4152 3.70913 
13.9956 40.0423 1.80518 12.048 40.2428 3.67789 12.0476 42.1195 1.49858 
14.1533 41.9369 3.77321 15.9558 39.7894 3.89234 17.9663 39.1485 1.69683 
16.1861 41.5277 1.62924 20.1927 41.2055 1.72337 18.0746 41.5815 3.70629 
19.9505 39.2554 3.7436 21.9849 38.7232 1.76483 24.1086 40.49 1.62812 
23.9128 38.4335 3.64886 22.1801 40.9304 3.72993 24.494 42.6002 3.61708 
26.2472 42.2725 1.58654 28.0702 41.9786 3.61698 26.1336 38.1297 1.75207 
28.1117 40.1727 1.39771 25.9427 40.1046 3.56648 30.1947 41.7758 1.49985 
31.8358 39.3429 1.37913 34.129 39.2681 3.35832 30.0195 39.5709 41.2382 
36.4708 -2.84449 1.22054 34.628 -2.40941 3.38094 33.9719 39.1206 41.1083 
36.1425 39.0956 1.23872 34.3284 41.1364 1.11398 36.425 40.8292 3.24086 
4.57474 1.61166 5.67721 4.61056 -0.343557 7.7136 6.58509 1.5262 7.62089 
6.4653 -0.89309 5.73129 4.30573 43.0908 5.70198 6.1708 42.8672 7.71624 
[...]
POINT_DATA 4000
FIELD FieldData 6
id 1 4000 int
8 405 7 406 3 12 11 409 410 
16 15 413 414 20 19 59 418 417 
421 24 461 28 23 422 63 465 32 
67 469 426 36 35 434 75 473 4 
401 40 402 43 48 45 42 47 46 
445 442 52 51 450 449 55 56 95 
453 60 97 99 457 458 497 64 462 
501 103 68 505 72 466 71 470 76 
474 79 477 44 80 478 441 41 78 
83 88 85 82 87 91 92 86 90 
89 493 96 135 133 93 94 100 139 
537 498 98 137 104 108 502 541 107 
509 112 147 506 510 513 115 111 116 
120 114 153 81 481 84 119 118 123 
125 128 122 129 127 132 529 169 126 
130 131 136 175 134 171 173 140 144 
538 143 545 148 542 183 581 549 151 
152 189 150 155 156 154 160 157 159 
121 124 158 163 165 168 162 205 167 
172 166 207 209 176 170 211 179 180 
578 219 617 585 184 188 582 225 187 
191 192 190 186 195 193 196 194 197 
164 161 199 200 198 203 208 243 202 
204 241 245 212 206 249 247 251 215 
216 255 614 653 220 618 259 224 261 
223 228 227 226 222 231 232 229 230 
235 236 233 234 239 237 240 238 201 
242 244 281 283 248 252 287 689 256 
291 295 654 650 260 297 264 258 263 
268 265 262 267 266 271 272 270 269 
275 276 273 274 277 279 280 319 278 
317 288 725 284 323 292 327 686 693 
296 294 300 697 333 299 304 301 698 
303 308 302 305 705 702 311 307 309 
312 306 310 351 315 316 313 355 353 
314 320 359 357 318 328 363 722 324 
761 729 331 332 726 336 733 330 335 
340 337 694 734 737 339 344 738 343 
348 742 745 347 352 746 750 389 356 
354 391 350 393 395 360 358 765 368 
762 364 766 371 367 372 730 769 770 
375 773 376 774 777 379 380 384 778 
781 383 388 785 782 425 27 429 387 
392 786 31 396 794 390 39 437 397 
399 400 798 408 805 806 407 768 1166 
412 809 411 810 416 415 814 813 420 
419 459 817 818 821 424 428 463 865 
861 423 822 432 826 467 869 430 471 
436 440 830 438 802 403 439 801 443 
448 447 846 845 842 451 446 849 452 
850 454 455 456 854 495 853 857 460 
858 897 499 901 464 503 862 468 905 
472 507 866 909 475 476 480 404 479 
444 841 485 483 482 488 885 882 489 
490 486 487 889 492 886 491 890 494 
496 535 533 894 893 933 500 898 539 
937 941 504 902 543 508 511 512 906 
516 945 515 514 517 520 519 484 518 
881 918 522 525 523 925 528 922 526 
527 569 532 969 573 530 531 534 536 
571 934 577 540 575 977 579 938 544 
548 942 981 546 547 551 552 550 554 
557 555 553 556 560 558 521 559 524 
562 605 563 965 565 568 567 566 572 
607 609 570 613 576 611 1013 574 615 
580 978 584 583 588 586 587 589 591 
592 590 594 593 595 596 597 600 598 
599 561 564 602 641 603 608 643 604 
645 606 649 612 647 1010 610 616 651 
621 619 620 622 623 625 628 627 626 
1025 986 1026 630 629 631 632 1030 633 
634 635 636 637 601 639 638 640 642 
648 644 683 681 646 652 687 685 655 
656 657 624 661 659 664 1022 1061 665 
662 663 668 667 666 1065 1062 1066 669 
671 670 672 1069 675 674 673 676 715 
677 678 679 680 717 719 682 684 723 
721 1121 690 691 688 692 1125 1086 660 
695 700 1097 658 699 701 704 1058 1098 
1101 1105 703 708 707 1102 710 706 1109 
709 712 711 1106 1110 713 714 716 1113 
753 755 757 718 720 759 728 724 1122 
1161 727 696 731 1133 1094 735 736 1137 
740 1134 741 739 744 1141 743 1145 748 
1142 751 749 747 752 1189 789 1146 1149 
754 793 756 795 791 797 758 760 799 
1158 1197 763 767 764 732 772 1170 1169 
771 1130 775 776 1174 1177 1173 779 780 
1181 1178 784 783 788 1182 825 1185 427 
787 792 829 1186 790 433 431 796 435 
800 1162 808 803 807 1206 812 811 1210 
1209 816 815 1213 1214 820 859 824 819 
1218 1221 1217 828 1265 863 1222 1261 832 
1269 867 1226 871 836 873 1230 834 804 
840 839 843 848 1245 1242 847 1246 851 
852 1249 1250 1253 855 856 1254 860 1258 
1257 899 1297 864 903 1301 1262 868 1305 
872 907 1266 877 875 870 876 880 1274 
838 878 879 844 883 888 1285 887 891 
892 1290 1289 1286 1293 895 896 1294 1333 
935 900 939 1337 1298 904 1302 943 1341 
913 911 908 912 947 874 914 917 915 
916 920 884 919 1281 1318 923 928 1325 
1322 929 926 927 931 932 1326 1329 1369 
930 1330 936 1334 971 973 975 940 979 
1338 1377 944 948 946 983 910 949 951 
952 950 954 957 955 953 956 960 1357 
1354 921 958 924 959 962 963 1365 968 
966 1009 967 972 1007 970 1011 976 1370 
1413 974 1017 1015 980 1019 1374 985 987 
984 982 988 989 990 992 991 1390 993 
997 994 995 996 1000 961 1361 998 999 
964 1005 1002 1045 1003 1008 1043 1004 1006 
1049 1012 1406 1047 1449 1053 1016 1055 1051 
1410 1014 1021 1018 1020 1024 1023 1028 1027 
1426 1429 1029 1032 1031 1033 1034 1035 1036 
1001 1037 1038 1039 1040 1401 1041 1042 1048 
1044 1081 1083 1046 1089 1052 1087 1085 1485 
1054 1057 1050 1056 1091 1060 1493 1059 1064 
1063 1068 1067 1465 1462 1466 1071 1072 1070 
1470 1073 1074 1075 1076 1473 1077 1078 1079 
1080 1117 1119 1082 1084 1123 1521 1482 1088 
1092 1127 1093 1095 1096 1100 1099 1498 1501 
1104 1103 1108 1107 1505 1502 1506 1509 1112 
1510 1111 1151 1153 1115 1114 1116 1155 1514 
1513 1553 1118 1120 1159 1157 1124 1128 1163 
1090 1129 1131 1132 1136 1135 1534 1140 1537 
1139 1138 1144 1538 1541 1143 1148 1545 1542 
1147 1152 1589 1549 1550 1187 1546 1154 1150 
1156 1554 1191 1195 1193 1160 1199 1558 1597 
1126 1165 1168 1164 1167 1171 1172 1570 1573 
1175 1176 1574 1577 1180 1179 1184 1581 1578 
823 1183 1188 1585 1225 1582 827 1192 1229 
1586 1190 833 831 1233 1590 1196 835 1194 
1198 837 1200 1594 1202 1205 1208 1204 1641 
1212 1610 1207 1211 1216 1215 1614 1613 1220 
1618 1224 1259 1219 1617 1621 1228 1263 1665 
1661 1622 1267 1232 1271 1626 1234 1273 1236 
1275 1238 1240 1279 1277 1247 1243 1248 1649 
1251 1252 1650 1646 1653 1255 1256 1654 1657 
1260 1658 1299 1697 1264 1268 1303 1662 1705 
1701 1309 1272 1307 1669 1666 1311 1270 1313 
1276 1315 1241 1278 1244 1280 1717 1282 1283 
1288 1685 1682 1291 1287 1689 1292 1686 1690 
1729 1693 1295 1296 1694 1733 1335 1300 1698 
1339 1737 1345 1304 1308 1343 1306 1310 1312 
1347 1349 1314 1317 1316 1351 1320 1319 1284 
1323 1328 1725 1327 1332 1367 1331 1769 1726 
1373 1371 1730 1336 1734 1773 1375 1340 1379 
1344 1342 1348 1383 1381 1385 1346 1352 1350 
1387 1355 1353 1356 1360 1358 1321 1721 1324 
1359 1758 1362 1405 1363 1368 1403 1805 1762 
1366 1409 1372 1407 1809 1411 1376 1415 1770 
1378 1417 1380 1419 1421 1382 1384 1388 1423 
1391 1389 1386 1392 1393 1397 1394 1395 1396 
1794 1797 1399 1761 1364 1398 1400 1798 1402 
1441 1445 1408 1404 1841 1443 1802 1845 1412 
1451 1447 1806 1414 1453 1416 1455 1457 1418 
1420 1459 1422 1425 1424 1428 1430 1427 1431 
1432 1830 1435 1433 1434 1436 1833 1801 1439 
1437 1438 1440 1479 1838 1442 1481 1448 1444 
1483 1842 1881 1489 1446 1452 1487 1450 1454 
1491 1456 1495 1461 1458 1460 1464 1858 1897 
1463 1468 1467 1866 1469 1472 1471 1869 1870 
1475 1474 1476 1874 1873 1478 1517 1477 1877 
1480 1519 1488 1525 1523 1484 1486 1492 1529 
1527 1494 1490 1496 1531 1497 1894 1499 1500 
1504 1503 1508 1905 1507 1906 1902 1511 1512 
1910 1909 1913 1515 1516 1555 1914 1953 1518 
1557 1520 1559 1957 1565 1522 1528 1524 1561 
1563 1530 1526 1532 1567 1533 1535 1536 1540 
1539 1941 1544 1938 1543 1548 1945 1942 1547 
1946 1552 1587 1949 1551 1950 1593 1556 1591 
1993 1954 1595 1560 1599 1566 1201 1203 1562 
1568 1564 1569 1571 1572 1966 1575 1576 1974 
1580 1977 1579 1978 1584 1981 1583 1223 1588 
1985 1625 1982 1989 1227 1986 1592 1629 1235 
1990 1231 1596 1237 1598 1239 1600 1602 1604 
1643 2041 1606 1609 1608 1612 1611 1616 2014 
1615 1620 1619 2018 1624 1659 2017 2061 1628 
1663 2022 1630 1632 1631 2030 1671 1673 1634 
1636 1675 1633 2034 2073 1677 1638 1640 1679 
1642 1645 1648 1644 1647 1651 1652 2050 1655 
1656 1695 2053 2054 2057 1660 2097 2058 1699 
1664 1668 1703 2065 2062 1709 1667 1672 1707 
2066 1713 1670 1711 1674 1676 1715 1678 1680 
1719 2078 2117 1683 1688 2082 2089 1687 1692 
2086 1691 2129 2093 1696 2094 1735 2090 1731 
2133 1741 1700 2098 1704 1739 1702 1745 1708 
1743 1749 1706 1712 1747 1710 1753 1714 1716 
1755 1751 1681 1684 1718 1720 2118 1722 1765 
1723 2125 1728 2122 2165 1727 1732 1767 2126 
2169 1736 1771 2130 1775 2137 1738 1740 1779 
1744 1777 1742 1748 1783 1785 1781 1746 1752 
1789 1787 1750 2150 1754 1756 1791 1759 1757 
1724 1760 1763 1768 2162 2205 1766 1772 1807 
1811 2166 1813 1776 1774 1815 1817 1780 1778 
1819 1821 1782 1784 1788 1823 2221 1786 1825 
1790 1792 1827 1793 1795 1796 1764 1799 1800 
2198 1803 1808 1843 1804 2202 1810 1849 1812 
1847 1851 1814 1816 1855 1853 1818 1857 1820 
1859 2218 1822 1861 1824 1863 2222 1831 1828 
1826 1829 1832 2265 2237 1835 1834 1836 2234 
2201 1839 1837 1840 2238 1885 1848 1883 1844 
1846 1852 1889 1887 1850 1854 1856 1895 1893 
1891 2293 1860 1899 1862 1865 1864 1868 1871 
1867 1872 2270 1875 1876 2273 2274 1917 1878 
2277 1879 1880 1919 1882 1888 1923 1925 1929 
1886 1892 1927 1890 1931 1896 1933 1898 1935 
1900 1901 1904 1903 1908 1907 1912 2306 2309 
1911 2310 1915 1916 1955 2314 2313 1918 1921 
1884 1920 2317 1922 1961 1928 1963 1924 1965 
1926 1932 1969 1967 1934 1930 1936 1971 1937 
1939 1940 1944 1943 2345 1948 2342 1947 2349 
1952 2346 1951 1987 2353 2350 1956 1991 1959 
1958 1960 1999 1962 1605 1603 1968 1964 1601 
1970 1607 1972 2366 1973 1975 1976 1980 1979 
2021 1984 2381 2378 1983 2385 1623 2025 1988 
2382 1627 1992 2386 2389 1994 1995 1635 1996 
2394 2033 1637 1639 1997 1998 2000 2002 2043 
2004 2008 2045 2006 2012 2047 2445 2449 2010 
2016 2015 2414 2020 2418 2059 2019 2421 2024 
2028 2425 2027 2422 2029 2026 2032 2031 2069 
2429 2426 2469 2036 2433 2434 2071 2075 2430 
2473 2038 2077 2040 2079 2042 2044 2083 2481 
2081 2442 2049 2046 2048 2485 2052 2446 2055 
2051 2091 2056 2454 2453 2450 2095 2457 2060 
2064 2101 2458 2461 2465 2063 2068 2105 2109 
2067 2072 2107 2509 2074 2470 2070 2076 2111 
2115 2113 2474 2513 2080 2119 2085 2088 2482 
2521 2084 2087 2489 2092 2486 2127 2493 2490 
2096 2131 2494 2099 2100 2104 2497 2103 2102 
2145 2108 2143 2106 2506 2112 2149 2147 2549 
2114 2110 2151 2116 2153 2553 2514 2120 2155 
2157 2159 2518 2123 2525 2128 2163 2522 2561 
2529 2132 2167 2526 2530 2134 2135 2136 2533 
2141 2138 2139 2140 2179 2181 2185 2144 2142 
2148 2183 2585 2146 2189 2187 2152 2589 2546 
2156 2193 2191 2550 2121 2154 2124 2158 2160 
2195 2554 2558 2168 2565 2562 2170 2172 2171 
2213 2173 2175 2174 2176 2215 2177 2178 2180 
2217 2219 2182 2184 2223 2225 2582 2188 2186 
2192 2629 2227 2229 2625 2190 2231 2194 2196 
2633 2161 2199 2197 2164 2200 2598 2207 2203 
2208 2209 2206 2212 2210 2211 2610 2214 2216 
2255 2251 2253 2257 2220 2259 2261 2224 2263 
2661 2228 2226 2230 2232 2267 2669 2233 2235 
2236 2630 2601 2239 2204 2240 2638 2245 2242 
2243 2248 2283 2241 2285 2289 2246 2247 2249 
2252 2287 2250 2254 2256 2295 2291 2297 2258 
2260 2299 2264 2301 2262 2303 2271 2268 2269 
2266 2272 2275 2276 2674 2244 2278 2279 2280 
2677 2325 2282 2288 2323 2321 2329 2286 2292 
2327 2686 2729 2290 2333 2296 2331 2694 2733 
2294 2335 2298 2337 2300 2339 2305 2302 2304 
2308 2311 2307 2312 2710 2713 2315 2316 2281 
2318 2284 2319 2320 2365 2322 2328 2324 2363 
2361 2326 2332 2369 2367 2373 2330 2336 2371 
2338 2377 2334 2375 2340 2341 2343 2344 2348 
2749 2347 2351 2352 2387 2746 2354 2355 2356 
2397 2359 2358 2357 2360 2399 2797 2001 2362 
2003 2364 2762 2005 2368 2009 2007 2372 2409 
2013 2374 2370 2011 2376 2770 2379 2380 2384 
2785 2023 2383 2388 2782 2390 2392 2391 2790 
2393 2035 2793 2395 2396 2039 2037 2398 2400 
2798 2437 2402 2441 2802 2404 2443 2841 2408 
2406 2412 2806 2845 2447 2410 2451 2416 2853 
2810 2849 2420 2424 2818 2428 2825 2423 2822 
2432 2427 2826 2829 2830 2431 2436 2834 2475 
2471 2873 2833 2438 2477 2440 2479 2877 2838 
2444 2881 2842 2483 2448 2885 2487 2846 2889 
2455 2452 2456 2850 2857 2854 2460 2459 2464 
2462 2505 2463 2468 2865 2466 2467 2472 2507 
2869 2866 2909 2511 2476 2874 2515 2870 2478 
2517 2480 2878 2519 2917 2523 2484 2921 2882 
2925 2488 2492 2886 2890 2491 2495 2496 2500 
2501 2498 2499 2504 2545 2503 2905 2502 2902 
2508 2945 2512 2547 2906 2949 2510 2516 2551 
2914 2910 2953 2555 2520 2918 2557 2559 2957 
2528 2524 2922 2599 2961 2965 2527 2531 2532 
2926 2535 2536 2534 2934 2538 2537 2539 2937 
2541 2540 2579 2941 2543 2544 2542 2942 2548 
2583 2581 2981 2985 2587 2552 2989 2591 2593 
2556 2993 2597 2595 2560 2958 2954 2997 2563 
2568 2567 2566 2571 2569 2570 2572 2573 2613 
2575 2574 2576 2615 2974 2617 2577 2578 2580 
2619 2977 2978 3017 2584 2623 2588 2621 2586 
2592 2627 3029 2986 3025 2590 2596 2631 3033 
2990 2594 2994 2635 2564 2600 2602 2605 2603 
2608 2607 2606 2611 2609 2612 3010 3013 2614 
2616 3014 3053 2651 2655 2653 2618 2657 2620 
2659 3018 2624 2622 2663 3061 2626 2628 2632 
2667 2665 3026 3069 2634 2636 2671 2675 3030 
2637 2639 2604 2640 2643 2645 2642 2648 2647 
2649 2646 2652 2687 3049 2689 2654 2650 2656 
2691 2693 3054 2658 2697 2660 2695 2699 3097 
2701 2664 2662 2703 3062 2705 2709 2668 2666 
2672 2707 3066 2673 2670 2676 2680 2711 2641 
2678 2644 2679 2682 2685 2683 2688 2723 2725 
3125 2692 2727 2690 2696 2731 3133 2735 2698 
2700 2737 2739 3094 3098 2704 2741 2702 2743 
2744 2706 2708 2712 2747 2714 2717 2715 2716 
2681 2721 2684 2718 2719 2720 2761 2722 2765 
2728 2763 2724 3122 2726 2732 2767 2769 2730 
2773 2736 2771 3173 2734 2775 3134 2777 2740 
3177 2780 2781 2745 2742 2738 2779 2748 2783 
2750 2752 2751 2753 2754 2755 2756 3154 2757 
2758 2759 2760 2799 3121 2401 2801 2403 3162 
2764 2405 2768 2766 2407 2809 2772 2413 2411 
2776 3170 2778 2417 2415 2774 2419 3174 2786 
2784 2788 2787 2789 2792 2791 2794 2435 2795 
2796 3194 2439 2837 2800 3198 3197 2804 2843 
3241 3202 2808 3245 2812 3206 2847 3249 2851 
2816 3210 3214 2814 2820 2819 2821 2824 2828 
2823 3225 3222 2832 3229 2827 3226 2831 2836 
2875 3273 3233 2871 2835 3234 2840 2879 3238 
3277 2844 2883 3242 3281 2848 2852 2887 2891 
2856 2855 2860 2893 2858 2861 3261 2859 3258 
2864 2862 2863 2868 3262 3265 2867 3269 3266 
2872 3309 2876 2913 2915 2911 3274 3270 3313 
2880 2919 3278 3317 2884 2923 2959 2888 2892 
2929 2927 2894 2895 2896 2897 3297 3294 2901 
2899 3301 2898 2900 2904 3298 2903 3302 2908 
3305 3345 2907 2912 2947 3306 3349 3310 2916 
3353 2951 3314 2955 2920 3318 3357 2928 2924 
2963 2930 2932 2931 2933 2936 2935 3334 2939 
2938 2940 2979 3341 3337 3338 2943 2944 2948 
3342 2983 3385 3381 2946 2952 3346 3389 2987 
2950 2956 2991 3350 3393 2995 2960 2999 3354 
2966 2967 2962 2968 2964 2969 2972 2971 2970 
2975 2973 2976 3015 3374 2980 3019 3378 3377 
3417 3021 2982 2984 2988 3382 3023 3421 3425 
2992 3027 3429 3386 2996 3031 3390 2998 3037 
3035 3000 3039 3002 3003 3005 3008 3006 3009 
3409 3007 3012 3410 3011 3413 3016 3414 3051 
3055 3020 3059 3057 3457 3022 3024 3063 3461 
3065 3028 3465 3426 3032 3067 3071 3036 3073 
3075 3034 3001 3038 3004 3040 3045 3042 3445 
3043 3048 3442 3089 3046 3047 3052 3087 3050 
3093 3056 3091 3095 3450 3493 3058 3060 3099 
3497 3458 3101 3064 3103 3462 3501 3105 3109 
3068 3072 3107 3111 3074 3070 3076 3077 3080 
3078 3079 3041 3044 3082 3085 3083 3088 3123 
3525 3086 3129 3092 3486 3127 3090 3096 3131 
3494 3533 3135 3137 3100 3139 3537 3498 3141 
3102 3104 3143 3110 3108 3106 3112 3145 3113 
3115 3117 3114 3116 3120 3081 3084 3118 3119 
3161 3165 3128 3522 3124 3561 3163 3565 3126 
3132 3167 3169 3569 3530 3130 3136 3573 3171 
3534 3175 3140 3179 3142 3181 3146 3138 3144 
3148 3149 3150 3147 3152 3151 3550 3153 3155 
3156 3157 3159 3158 3160 3558 2803 3168 3562 
3164 3201 2805 3166 3205 2807 3209 3172 3566 
2811 2815 3570 2813 3176 2817 3178 3180 3184 
3185 3182 3183 3221 3188 3187 3586 3189 3186 
3190 3589 3192 3191 3590 3193 3195 3196 3594 
3199 2839 3200 3237 3598 3602 3204 3641 3645 
3243 3208 3212 3247 3606 3216 3614 3215 3217 
3218 3220 3219 3618 3224 3661 3228 3622 3621 
3232 3626 3231 3227 3630 3629 3230 3236 3235 
3275 3633 3634 3240 3638 3677 3279 3248 3283 
3244 3285 3246 3251 3252 3650 3255 3250 3254 
3253 3256 3653 3259 3257 3260 3264 3657 3263 
3662 3268 3665 3669 3267 3272 3666 3673 3271 
3311 3276 3713 3670 3674 3315 3280 3319 3678 
3717 3282 3321 3288 3284 3289 3286 3287 3292 
3291 3290 3295 3293 3296 3299 3300 3304 3701 
3698 3705 3303 3308 3702 3307 3312 3749 3347 
3709 3706 3351 3316 3710 3753 3355 3714 3320 
3359 3325 3323 3322 3328 3329 3326 3327 3332 
3330 3367 3331 3333 3335 3336 3734 3339 3340 
3737 3738 3741 3343 3745 3344 3348 3383 3785 
3742 3352 3387 3746 3789 3356 3391 3395 3750 
3793 3358 3397 3324 3360 3361 3362 3366 3365 
3363 3368 3403 3371 3369 3372 3370 3770 3373 
3375 3376 3415 3774 3773 3379 3380 3419 3777 
3778 3781 3384 3423 3782 3821 3388 3825 3392 
3786 3427 3433 3396 3431 3394 3364 3398 3399 
3400 3437 3402 3406 3405 3408 3404 3407 3412 
3810 3411 3813 3453 3451 3416 3455 3853 3418 
3420 3459 3818 3857 3424 3861 3422 3463 3822 
3469 3428 3432 3467 3430 3434 3435 3436 3401 
3438 3439 3440 3477 3479 3443 3448 3842 3447 
3446 3449 3452 3489 3487 3889 3849 3454 3456 
3495 3491 3854 3850 3893 3460 3499 3897 3858 
3464 3468 3503 3505 3471 3470 3466 3472 3513 
3475 3474 3473 3476 3515 3478 3441 3444 3480 
3485 3482 3483 3488 3523 3529 3492 3527 3929 
3886 3531 3490 3496 3933 3890 3500 3539 3535 
3894 3541 3502 3504 3508 3509 3511 3506 3549 
3507 3512 3514 3517 3510 3551 3516 3518 3481 
3484 3519 3520 3881 3528 3965 3524 3563 3922 
3961 3526 3532 3926 3567 3969 3536 3571 3575 
3930 3538 3540 3577 3544 3545 3542 3543 3548 
3546 3547 3552 3949 3587 3553 3555 3554 3556 
3557 3521 3559 3560 3958 3601 3203 3564 3962 
3568 3605 3207 3572 3966 3574 3213 3211 3576 
3581 3579 3578 3580 3978 3584 3582 3223 3625 
3585 3583 3985 3588 3982 3591 3592 3593 3595 
3596 3597 3239 3637 3599 3997 3600 3998 6 
2 3608 3604 3643 10 9 3610 3612 3611 
3613 13 14 3616 3615 21 3617 18 3620 
3659 3619 17 3624 61 22 3628 3663 26 
30 3632 3631 65 34 33 3636 3675 3635 
38 77 3640 3679 3642 3681 3648 3644 49 
50 3649 3647 3646 3652 3651 3654 53 54 
3655 3656 3658 57 58 3660 3699 3664 101 
62 3668 69 66 3667 3672 70 73 113 
74 3671 3676 3715 3711 117 3680 3719 3685 
3682 3683 3688 3687 3689 3686 3692 3691 3693 
3694 3690 3695 3696 3735 3697 3700 3704 105 
102 3703 3708 145 109 3707 106 149 3712 
3747 110 3716 3751 3755 3718 3757 3684 3720 
3725 3723 3722 3728 3726 3729 3727 3732 3733 
3730 3731 3771 3736 3739 138 3740 177 141 
3744 3743 185 181 142 3748 3783 146 3752 
3787 3754 3756 3791 3760 3758 3759 3721 3724 
3765 3805 3763 3762 3768 3803 3766 3769 3767 
3772 3807 174 3775 3776 3815 178 217 3779 
3817 3780 3819 182 3784 3788 221 3823 3829 
3792 3827 3790 3794 3795 3796 3800 3764 3797 
3761 3799 3798 3841 3802 3808 3843 3804 3806 
3809 3812 210 3811 3851 213 214 3814 3816 
3855 253 218 257 3820 3859 3865 3824 3828 
3863 3826 3830 3831 3832 3833 3834 3835 3836 
3801 3837 3838 3839 3840 3879 3845 3848 3844 
289 246 3846 3847 3852 3887 254 250 293 
3856 3891 3895 3860 3899 3901 3864 3862 3868 
3867 3870 3869 3871 3866 3872 3873 3874 3875 
3876 3913 3915 3877 3878 3917 3880 3919 282 
285 3925 3883 3885 3882 3888 325 3923 329 
286 3892 3927 3931 290 3896 3935 298 3898 
3937 3900 3904 3902 3905 3903 3908 3907 3906 
3909 3912 3911 3914 3953 3910 3916 3951 3955 
3884 3918 3920 321 365 322 3928 3924 3963 
361 326 369 3932 3967 334 3934 3973 3936 
3971 3940 338 3938 341 3939 3944 3941 342 
345 3945 3942 3943 3948 346 349 3946 3989 
3947 3952 3987 3954 3950 3956 3991 3921 3959 
3957 3960 3603 1 5 362 3968 3964 366 
3609 3607 3972 370 374 377 3970 373 3975 
3976 3974 3977 378 381 3981 3979 3980 3984 
25 385 382 3623 3983 3988 386 3986 3990 
29 3627 3992 3994 3993 394 3995 3996 3639 
3999 398 37 4000 
type 1 4000 int
1 1 1 1 1 1 1 1 1 
1 1 1 1 1 1 1 1 1 
1 1 1 1 1 1 1 1 1 
1 1 1 1 1 1 1 1 1 
1 1 1 1 1 1 1 1 1 
1 1 1 1 1 1 1 1 1 
1 1 1 1 1 1 1 1 1 
1 1 1 1 1 1 1 1 1 
1 1 1 1 1 1 1 1 1 
1 1 1 1 1 1 1 1 1 
1 1 1 1 1 1 1 1 1 
1 1 1 1 1 1 1 1 1 
1 1 1 1 1 1 1 1 1 
1 1 1 1 1 1 1 1 1 
1 1 1 1 1 1 1 1 1 
1 1 1 1 1 1 1 1 1 
1 1 1 1 1 1 1 1 1 
1 1 1 1 1 1 1 1 1 
1 1 1 1 1 1 1 1 1 
1 1 1 1 1 1 1 1 1 
1 1 1 1 1 1 1 1 1 
1 1 1 1 1 1 1 1 1 
1 1 1 1 1 1 1 1 1 
1 1 1 1 1 1 1 1 1 
1 1 1 1 1 1 1 1 1 
1 1 1 1 1 1 1 1 1 
1 1 1 1 1 1 1 1 1 
1 1 1 1 1 1 1 1 1 
1 1 1 1 1 1 1 1 1 
1 1 1 1 1 1 1 1 1 
1 1 1 1 1 1 1 1 1 