# vtk DataFile Version 4.0
Generated by LAMMPS
ASCII
DATASET POLYDATA
POINTS 4000 float
5.51028 1.21512 0.976673 3.73664 -1.00318 0.934153 5.66602 3.02272 3.06255 
3.65309 1.1941 3.34122 5.53028 -0.785082 3.07735 9.59138 1.09831 0.743986 
11.3216 1.12689 -1.25583 7.56517 3.19069 0.887147 7.50659 0.990218 -1.19868 
12.7141 1.11839 1.07088 11.1685 1.05495 3.13111 14.733 1.04928 -1.07284 
16.546 1.10604 1.03494 20.2744 1.06982 1.03122 18.343 1.13996 -1.13975 
22.1304 0.958029 3.22252 23.9066 1.14059 0.897176 20.2933 -0.979087 -0.939516 
22.0121 1.12374 -1.09669 25.7502 -1.00562 1.27047 27.5538 1.22083 1.0799 
25.6885 1.09675 -1.05596 29.2845 -1.11603 1.03068 29.5271 1.13767 3.34802 
25.7107 3.29743 1.18879 27.6296 -0.961223 3.2096 31.0389 1.00068 1.07348 
32.9796 -1.06096 1.19248 29.3495 3.14527 1.15459 32.9228 3.0727 1.1382 
33.18 0.9255 3.34356 38.4725 1.24314 1.07252 34.7253 1.00445 1.171 
35.0521 -0.939422 3.13899 3.65184 3.36788 0.983776 5.80587 5.32935 1.11805 
5.62207 3.29916 -1.12131 9.25676 5.36123 0.965749 11.2121 5.47815 -1.11643 
7.66572 5.12597 3.21852 7.504 5.33486 -1.14852 9.2921 7.4218 -1.21691 
11.2265 3.32144 0.993046 14.7292 3.15799 1.04229 13.0469 5.42778 1.15971 
12.9105 3.25459 -1.16889 12.9877 7.56561 -1.1107 14.5485 5.26847 -1.13925 
18.3333 3.16585 1.23329 16.4305 5.25113 1.02461 20.2823 5.35364 1.16187 
18.3795 5.36348 -0.879291 16.6322 3.28324 -1.22856 22.1616 3.23909 1.25773 
23.7369 5.42044 1.23071 22.0066 7.43295 1.03707 21.9547 5.37431 3.48798 
23.9086 3.35611 3.32391 20.1799 3.23192 -0.973927 24.0376 7.55622 -1.06678 
27.6252 5.14406 1.01808 25.8682 7.41233 1.27643 25.6619 5.26428 -0.783175 
29.3753 5.26338 -1.13183 31.2296 5.33694 1.13028 31.2293 7.46992 3.29862 
33.0261 5.31455 -0.743732 33.0922 7.54045 1.08521 38.4101 5.3739 1.29642 
36.581 3.15888 1.16845 34.8447 5.30512 1.19865 34.7866 7.39299 -1.03744 
34.7403 3.13391 3.25746 3.89698 7.38989 1.13368 5.7993 9.55663 1.12345 
3.82864 11.7009 1.118 11.016 7.47077 0.909697 7.60966 7.40872 1.02941 
9.04203 9.50883 1.02337 7.47918 9.64772 -1.30194 14.8078 7.42392 0.983285 
13.1554 9.72399 1.08549 14.6969 12.0747 1.20677 14.8354 9.53345 -1.18115 
13.1034 11.8262 -1.0015 16.5882 7.45969 -1.2187 18.3485 7.41484 1.11698 
16.3291 9.8191 1.22854 18.348 9.58674 -1.00304 16.6071 7.74772 3.28438 
20.1608 7.55323 -1.16739 20.1999 9.59271 0.967318 21.9764 11.7505 1.00765 
23.9964 9.42294 1.09234 23.8642 11.726 -1.15884 20.1344 11.7296 -1.09175 
27.6249 9.65585 1.13267 29.4875 9.65419 -0.90834 27.6041 7.33103 -0.894765 
25.7274 11.7579 1.2047 25.7267 9.62339 3.18527 29.2221 7.44139 1.29031 
29.4726 11.7889 1.15764 31.1643 9.5912 1.2317 31.2028 11.862 3.20731 
38.2626 9.40527 1.27558 36.5274 7.24518 1.1174 34.8451 9.6894 1.48855 
36.8148 11.6926 1.23871 38.3092 7.4479 3.22238 36.5985 9.47518 -0.76232 
5.47621 13.7406 1.04466 3.84209 15.8809 1.17033 5.61318 11.7442 -1.08928 
3.58412 13.8368 -1.01248 5.51174 15.8927 -0.987987 7.45638 11.7769 1.12312 
11.0153 11.6048 1.01996 9.21973 13.8349 1.08674 7.42545 13.668 -0.866808 
11.0287 15.9329 1.09395 11.2021 13.9963 -1.05932 12.8525 11.7854 3.21371 
12.9357 14.0345 1.07879 14.7381 14.2083 -1.05206 12.9329 16.1743 -1.18032 
18.2966 11.619 1.16303 16.6457 13.9445 1.16658 18.4896 16.0787 0.94448 
20.2024 16.2136 2.91358 16.5913 11.8429 -0.895966 16.5406 16.0329 -1.15347 
20.3314 16.0337 -1.14497 20.0938 13.8738 1.04753 24.0397 13.7743 1.0383 
21.9335 13.9813 3.14536 22.103 16.0479 0.916472 23.9012 15.9416 3.06185 
27.4537 13.8454 1.14805 25.6553 13.8005 -1.04142 25.7258 16.006 1.00312 
25.6722 13.9403 3.48601 27.5331 16.0598 3.20945 33.1343 11.8916 1.39692 
31.2484 13.8078 1.16133 33.0733 16.049 1.05067 29.3682 15.9891 1.14643 
31.1265 16.0326 3.31114 33.2116 13.9813 3.40259 38.3237 13.9405 1.30311 
34.9121 13.9417 1.11326 34.9643 16.1511 3.2716 5.66432 18.1453 1.24754 
2.25926 18.1119 1.12841 5.62981 16.009 3.17859 2.05967 20.2015 -1.10994 
5.57245 20.3574 -1.16651 7.45642 15.9825 1.10979 9.26081 18.1712 1.16252 
7.35576 20.1618 1.2358 9.46891 20.2463 -1.02582 7.26955 18.2627 -1.05646 
14.7598 16.012 1.07285 13.0954 18.2814 1.00784 13.0361 20.3148 -1.07607 
14.8677 20.3686 1.0652 16.3859 18.0763 0.758049 20.2061 18.1052 0.869258 
18.2601 18.2659 2.96834 21.921 20.3539 1.24659 23.8276 18.2514 1.1794 
20.2376 20.1952 3.3173 22.0313 18.1502 3.29555 27.5658 18.0292 1.04985 
25.9371 20.2241 1.14223 29.2864 18.0918 2.9655 27.5716 20.2128 -1.05071 
29.3913 18.0625 -1.00938 31.17 18.2031 1.0381 29.4474 20.4157 0.980611 
31.1272 20.306 3.08146 32.9178 18.0388 -1.22447 31.0047 20.3556 -1.12314 
36.7136 16.0735 1.00432 38.2484 16.0991 3.18302 34.9447 18.1954 1.08833 
36.9382 20.167 1.19269 36.6272 18.3123 3.05646 38.5773 20.2952 3.33354 
3.84894 20.4012 1.00371 5.68778 22.3543 1.01037 5.55828 24.448 -1.11308 
3.83792 22.5225 3.25546 2.12013 22.2998 1.02451 3.82114 24.5424 1.19513 
9.41713 22.3682 1.03203 7.70709 22.2111 -0.896645 11.1544 20.249 1.07801 
11.2346 22.2407 3.14911 11.2467 22.4504 -1.26218 12.9922 22.3952 0.945632 
11.1121 24.4664 1.07258 12.9348 24.6077 -1.17904 18.3066 20.166 1.03484 
16.795 22.3811 0.989472 18.359 24.7666 1.13513 16.4023 20.4422 3.34527 
18.5135 22.5241 3.38923 18.2538 22.5511 -1.1471 16.599 24.7543 -1.09738 
19.981 22.3704 0.923715 21.8917 22.442 3.07269 23.913 22.2382 1.07124 
22.1056 24.3546 0.980708 23.9157 24.438 3.23938 20.4017 24.644 3.11513 
27.5902 22.4584 0.868677 25.7148 22.357 3.11202 27.4201 24.5965 3.07405 
25.7504 24.4837 0.928544 25.6256 22.4049 -1.11128 29.2946 22.5716 3.25877 
33.056 20.4451 1.00985 31.1997 22.5381 1.05551 29.329 24.5174 0.867685 
33.0604 22.4303 3.12034 33.0028 24.3645 0.751503 31.2607 24.5611 -1.04815 
34.785 22.3148 1.1874 36.8272 24.5099 1.11402 35.0262 24.6235 3.04229 
36.6808 22.2887 -0.881687 5.48617 26.6644 1.01639 3.76203 29.003 1.04777 
3.84528 26.5229 3.26801 5.59436 28.712 3.07635 2.09885 28.7249 -1.12995 
7.40949 24.502 0.964097 9.26001 26.595 0.910719 7.39675 28.9862 1.1568 
7.39142 26.6239 3.01083 9.20259 28.8542 -0.937047 14.7837 24.5733 0.969141 
12.957 26.5193 1.00657 14.6845 28.5754 0.927941 11.059 28.807 0.902907 
14.8955 26.4352 3.18022 16.6367 24.3523 3.22999 16.6796 26.664 1.04089 
18.6386 28.9144 0.750198 18.547 26.6634 -1.1855 20.2382 26.5775 0.872857 
23.765 26.6482 0.934748 22.3247 26.6269 3.25245 24.0657 28.7886 3.05985 
23.8056 24.6043 -1.18081 22.0815 26.6473 -1.24738 27.5088 24.7029 -1.17865 
27.4548 26.5628 0.95467 25.86 28.8875 0.821988 27.5908 28.7265 3.00788 
29.3249 28.6364 0.81522 27.5213 28.678 -1.26247 31.2099 26.6376 1.09728 
32.9778 26.665 3.20159 31.1222 28.741 3.19465 29.4489 26.6387 -1.12299 
38.6228 26.6248 1.15726 34.7145 26.6017 1.01203 38.5837 28.6331 3.16441 
36.7042 28.7902 1.08014 36.5361 26.7719 3.20223 5.51751 31.196 1.11043 
3.71639 30.8878 3.19891 3.78475 33.1738 1.11601 9.41472 30.9809 1.12353 
9.35511 32.9184 3.23946 7.52152 30.8733 3.22262 11.2339 30.7746 3.14055 
12.975 30.8733 0.929692 14.7088 30.8087 3.07908 16.6798 30.7648 1.06349 
18.5046 30.6977 3.11449 18.3801 33.1493 0.985255 20.397 30.8121 0.937678 
16.6457 28.7488 3.13962 21.9227 28.6194 1.0236 20.5277 28.8136 -1.36715 
20.2064 28.5309 3.12123 23.8595 30.9266 1.01328 23.7303 33.0287 3.21286 
21.9304 30.7904 3.27565 22.1588 30.8018 -1.29584 27.6535 31.0039 0.989587 
27.6844 33.0981 3.16341 25.7267 30.9413 -1.14756 32.9407 28.8981 1.0945 
29.3849 30.8783 3.14979 29.418 33.1625 1.0455 31.3123 31.0521 1.04137 
32.9017 30.9816 3.19534 38.5382 30.9539 0.972671 34.9169 30.9275 0.756087 
36.5538 33.0926 0.942212 5.71868 35.0771 1.26194 5.61844 33.0112 3.29864 
3.72324 34.9858 3.26726 3.89819 35.1614 -1.11483 7.56869 33.0266 1.17841 
9.32692 34.9775 0.950915 9.19375 37.3667 3.38353 11.2379 32.9224 1.01785 
11.0195 37.2515 1.05414 7.38248 37.1788 1.11925 7.54054 35.1601 3.26522 
14.8122 32.9109 1.08151 12.8723 35.2578 1.08726 14.8639 35.0304 3.16368 
14.8414 35.3079 -1.13308 14.8731 37.117 1.24543 10.9614 35.0963 3.32468 
13.0302 33.0506 3.27513 16.6964 35.2142 0.96759 20.2278 35.2381 1.09491 
18.4572 37.4165 1.02275 20.2514 32.8012 2.94227 18.4725 35.1501 -1.18213 
21.9762 33.2243 0.954574 23.7439 35.165 1.01289 22.0359 37.3364 1.14335 
25.6136 33.0815 1.11589 27.5345 35.2333 1.13721 27.6333 37.1121 3.20835 
25.6761 35.1625 -0.923989 33.1271 33.1091 0.994735 29.4726 35.1807 3.11836 
31.3033 35.3211 1.05036 29.3417 37.186 1.08265 31.2923 33.0386 3.17801 
32.9751 35.1186 3.28108 38.4371 35.3683 1.03446 34.7906 35.2928 1.08621 
34.7578 32.9318 3.36059 38.4799 37.0808 3.23759 38.4101 37.2427 -1.12414 
3.73617 37.3657 1.10325 5.51367 37.0012 3.38772 5.6164 39.407 1.0562 
2.05809 39.4744 1.07119 3.88517 39.4263 3.32172 3.83805 39.5482 -1.14355 
11.2036 41.506 1.06943 7.50286 41.491 1.09077 9.22411 39.1527 1.151 
11.0845 39.1814 3.34377 11.2266 39.44 -0.927994 12.8055 37.1628 3.13544 
14.5659 41.6222 0.968494 13.011 39.2832 1.32436 14.6686 39.4102 -1.04862 
14.7873 39.34 3.44219 13.001 41.3478 3.22517 16.4822 37.2414 3.27691 
16.4855 39.5826 1.14795 18.3798 41.6147 1.05278 18.3344 39.489 3.26528 
18.387 39.548 -1.02551 23.9276 41.5454 -1.06762 20.2012 37.262 3.2563 
22.2408 41.5296 1.12043 20.2639 39.5024 1.07492 20.1447 41.5569 3.33708 
23.9059 39.5026 1.21465 22.0423 39.3564 3.25348 25.5577 37.2938 1.00957 
27.5488 39.2481 1.07828 25.784 39.2383 3.17466 29.2976 39.4076 3.11346 
33.1155 37.4362 0.866169 31.1612 39.4759 1.0784 31.0392 37.1794 3.09266 
32.9335 39.5684 -1.04906 36.7782 41.5913 1.06714 34.8426 37.4876 -1.16757 
34.8894 37.0108 3.40753 36.604 37.4399 1.1507 34.7394 39.4925 1.21823 
36.6347 39.6078 -0.972817 5.77029 1.08872 5.47832 2.1404 0.866231 5.59202 
3.97657 -1.21092 5.39448 3.94496 0.981732 7.56842 7.706 1.00988 3.07826 
9.2598 -1.42246 3.08849 9.29925 0.865659 5.28368 7.50065 3.12249 5.42706 
7.67458 0.994506 7.67535 11.05 1.07289 7.36459 14.9229 1.22066 3.24297 
13.0404 0.833187 5.27237 13.0762 3.32864 3.17204 14.7288 3.2762 5.44936 
14.771 -1.3272 5.54151 16.5059 3.33068 3.24404 18.2292 1.13191 3.22267 
[...]
POINT_DATA 4000
FIELD FieldData 6
id 1 4000 int
8 3 445 402 405 12 10 47 6 
16 410 14 20 24 18 422 28 21 
22 27 32 26 31 430 67 429 36 
35 71 75 434 4 40 437 43 48 
45 52 50 446 46 89 51 55 56 
53 93 54 59 60 64 58 57 63 
68 103 462 465 61 105 72 107 66 
70 76 513 74 115 44 79 80 117 
477 83 88 123 91 87 92 86 95 
96 135 94 133 97 99 100 98 497 
101 104 143 108 145 141 112 110 109 
147 506 111 151 116 553 84 119 120 
159 481 118 128 163 125 122 165 127 
131 132 126 171 130 533 136 134 173 
139 140 179 581 137 177 181 144 148 
542 183 585 152 146 187 546 589 155 
156 195 191 593 554 124 160 597 168 
164 565 201 205 167 172 207 209 166 
175 176 213 215 180 184 578 223 188 
621 582 192 227 590 229 190 196 231 
633 194 233 199 561 200 239 598 601 
203 208 245 602 204 243 212 206 211 
610 210 216 251 253 219 220 259 617 
618 218 257 224 622 228 263 665 661 
232 626 669 267 226 630 235 236 271 
634 275 273 240 279 677 238 248 283 
642 685 281 247 252 287 646 289 255 
256 295 291 654 657 260 299 258 264 
268 662 705 265 262 269 272 307 709 
311 309 276 674 713 270 244 280 681 
319 678 288 682 323 292 729 686 690 
296 694 300 698 339 304 697 303 301 
701 308 745 702 302 312 749 306 315 
710 351 316 714 284 320 359 328 725 
722 322 327 332 769 331 371 367 726 
335 336 734 334 375 730 733 340 344 
379 741 338 343 348 383 347 352 789 
346 355 750 356 391 753 754 324 360 
757 761 361 363 765 368 364 762 362 
11 7 372 770 370 773 15 376 374 
774 413 777 380 19 778 378 25 781 
23 384 421 388 782 387 392 786 790 
395 396 793 394 39 397 797 399 400 
398 408 404 403 802 406 409 412 447 
806 810 414 416 453 455 415 457 418 
461 420 459 818 861 419 817 424 428 
825 425 426 469 427 432 826 471 433 
436 435 475 431 438 440 479 838 837 
485 442 443 448 483 449 452 846 450 
454 493 451 850 456 491 460 458 499 
464 501 463 862 468 505 467 466 470 
472 507 473 474 476 515 441 444 478 
480 841 878 917 482 488 523 885 484 
521 881 489 486 487 492 529 889 494 
490 495 496 535 498 500 539 504 502 
503 508 545 902 945 509 512 547 549 
511 510 514 516 555 518 519 517 557 
520 559 918 525 522 528 524 530 527 
526 532 571 531 926 534 536 933 537 
538 540 938 541 543 544 548 981 583 
985 552 587 591 550 551 950 556 954 
558 560 599 562 605 563 568 962 569 
566 567 572 966 570 970 573 574 613 
575 576 973 974 577 580 579 619 978 
584 588 625 623 982 1021 586 592 627 
990 993 594 595 596 994 635 631 564 
600 639 637 961 603 608 604 1001 1002 
609 611 607 606 612 649 614 615 616 
1014 651 620 659 1018 624 628 1065 663 
1061 1022 629 632 671 667 1026 1030 1069 
636 675 1073 638 640 1037 641 679 1038 
645 643 648 1085 683 647 689 652 687 
653 650 691 656 1093 655 658 660 1057 
1097 699 664 668 1062 703 1105 1101 666 
670 672 673 676 711 715 644 680 719 
1041 1081 688 1082 1125 692 1086 1129 727 
693 696 695 1090 1133 700 739 704 708 
1102 1145 706 707 712 1109 1106 1149 751 
716 1110 718 717 684 720 1117 723 728 
763 1122 1165 732 767 1169 1126 731 736 
735 775 771 1130 737 738 740 785 742 
743 744 748 1185 1142 746 747 1146 752 
755 756 795 1154 721 759 724 758 760 
1121 401 768 764 766 407 772 1166 809 
1173 411 776 1170 779 417 780 783 423 
784 788 787 792 1186 829 794 791 796 
1193 798 799 439 800 845 808 804 1205 
805 1202 812 807 1209 847 853 813 816 
811 814 1214 821 820 859 824 857 819 
822 865 863 828 1265 830 832 1229 834 
871 836 875 833 835 877 840 1237 842 
843 844 848 883 1245 849 1249 851 852 
887 854 855 856 895 893 860 858 1258 
905 864 868 1262 1301 869 866 870 867 
872 909 907 1266 873 874 876 915 1273 
1274 879 880 1241 1278 882 888 884 923 
1281 886 892 927 931 1289 1290 891 890 
896 894 898 937 897 899 901 900 903 
904 908 941 906 912 951 910 947 913 
911 914 916 1314 953 1313 1310 919 920 
959 1318 925 922 928 1325 924 963 930 
929 932 1326 934 936 935 975 1334 977 
939 940 944 979 942 943 948 983 1385 
1381 949 946 952 989 955 956 991 957 
958 997 921 960 1397 999 1358 965 968 
1005 1362 969 967 971 972 1409 1011 1013 
976 1015 1374 980 1019 984 988 1023 1382 
1421 1029 987 986 992 1031 1027 1389 995 
996 1035 1433 964 998 1000 1039 1361 1045 
1003 1008 1445 1006 1009 1007 1012 1047 1051 
1010 1053 1016 1453 1055 1414 1017 1020 1418 
1417 1025 1024 1063 1422 1028 1032 1071 1067 
1426 1033 1034 1036 1004 1401 1040 1438 1437 
1042 1043 1048 1044 1083 1049 1046 1052 1089 
1087 1050 1054 1056 1091 1095 1058 1060 1059 
1064 1068 1103 1066 1072 1107 1469 1070 1113 
1075 1074 1076 1473 1077 1079 1078 1080 1119 
1478 1088 1084 1485 1482 1092 1131 1529 1127 
1489 1490 1094 1096 1099 1100 1098 1498 1497 
1137 1501 1104 1108 1141 1509 1111 1506 1112 
1151 1147 1114 1115 1116 1553 1153 1118 1120 
1518 1123 1521 1124 1128 1522 1525 1132 1167 
1530 1569 1533 1135 1136 1134 1573 1138 1140 
1139 1179 1545 1143 1144 1148 1189 1152 1546 
1187 1150 1155 1156 1195 1554 1161 1159 1157 
1158 1160 1558 1597 1197 1162 801 1565 1163 
803 1168 1561 1172 1171 1566 1174 815 1175 
1176 1574 1177 1577 1181 1180 1178 1184 1578 
1182 1183 823 1188 1585 1225 1589 1191 827 
1586 1192 1590 831 1190 1194 1196 1593 1594 
839 1199 1164 1198 1200 1598 1208 1203 1204 
1602 1601 1206 1212 1606 1609 1253 1610 1210 
1216 1215 1211 1218 1257 1220 1259 1222 1221 
1224 1228 1261 1226 1267 1232 1669 1230 1231 
1234 1236 1233 1235 1633 1201 1238 1240 1279 
1239 1285 1243 1242 1248 1642 1645 1247 1246 
1252 1254 1250 1255 1251 1256 1650 1260 1658 
1263 1264 1305 1268 1303 1269 1666 1272 1709 
1275 1271 1270 1670 1311 1276 1713 1277 1244 
1280 1282 1283 1288 1284 1681 1685 1725 1682 
1291 1286 1287 1292 1331 1686 1690 1293 1294 
1333 1296 1295 1335 1297 1298 1299 1300 1339 
1302 1345 1304 1343 1308 1307 1306 1309 1347 
1312 1349 1351 1353 1315 1316 1317 1319 1320 
1718 1321 1322 1323 1328 1365 1324 1721 1761 
1327 1329 1332 1729 1330 1373 1336 1730 1375 
1734 1337 1341 1338 1340 1344 1379 1738 1342 
1348 1781 1350 1346 1352 1354 1355 1356 1393 
1753 1754 1757 1359 1357 1360 1758 1797 1363 
1368 1403 1369 1367 1366 1372 1411 1766 1809 
1370 1371 1376 1813 1378 1377 1380 1419 1383 
1384 1388 1782 1429 1387 1386 1392 1786 1394 
1391 1395 1390 1396 1794 1398 1399 1364 1400 
1405 1441 1402 1408 1404 1443 1407 1406 1449 
1410 1412 1413 1415 1416 1455 1810 1814 1457 
1461 1420 1424 1857 1425 1423 1465 1428 1463 
1822 1427 1826 1432 1467 1434 1435 1431 1830 
1430 1436 1439 1440 1479 1442 1448 1444 1885 
1447 1451 1446 1452 1450 1850 1853 1456 1454 
1893 1495 1854 1458 1459 1460 1858 1464 1462 
1468 1503 1869 1466 1472 1507 1909 1866 1470 
1873 1475 1471 1474 1476 1874 1477 1480 1519 
1483 1488 1523 1881 1486 1487 1492 1531 1889 
1493 1494 1491 1496 1894 1535 1499 1901 1897 
1500 1504 1539 1505 1502 1508 1902 1512 1551 
1510 1511 1910 1513 1515 1514 1516 1953 1517 
1557 1481 1484 1520 1528 1524 1925 1922 1921 
1527 1526 1532 1929 1969 1534 1536 1575 1930 
1934 1538 1537 1540 1579 1937 1541 1543 1945 
1544 1542 1583 1548 1549 1547 1946 1552 1550 
1555 1556 1595 1559 1560 1599 1958 1957 1965 
1562 1563 1568 1962 1564 1961 1570 1567 1207 
1572 1571 1213 1576 1974 1217 1219 1581 1580 
1582 1981 1584 1223 1625 1588 1227 1587 1986 
1592 1629 1591 1596 1990 1993 1600 1998 1605 
1608 1641 1603 1604 1643 2005 1649 1612 1607 
1647 1614 1616 2014 1617 1618 1621 1620 1624 
1622 1628 1623 1661 1665 1663 1626 1632 1667 
1634 1630 1636 1675 2030 1638 1640 1679 2037 
2077 1648 1683 2085 1644 2081 1646 1689 1652 
2046 2089 1653 1654 1693 1655 1651 1656 1697 
1657 1659 1660 1699 1662 1701 1705 1664 1668 
1703 2105 1672 1671 2070 2109 1673 1674 1711 
1676 1715 1677 1678 1680 1719 1688 1684 1723 
2082 2125 1687 1692 1727 1731 1694 1691 1696 
1695 2094 1741 1700 1698 2098 2137 1739 1702 
1704 1708 1743 1706 1707 2106 1712 1747 1710 
1714 1716 1755 2110 2114 2153 1717 1720 1759 
2118 2157 2121 1722 1728 2165 1724 2161 1726 
1732 1767 1769 1733 1735 1736 2130 2134 2173 
1737 1740 1744 1779 2138 2177 2181 1745 1742 
1783 1748 1785 1750 1746 1749 1789 1752 1787 
2150 1793 1751 1756 1795 1760 1799 1765 1805 
1762 1763 1768 2162 2201 1770 1772 1811 1771 
1773 1776 1774 1775 1815 2174 1777 1780 1778 
1817 1821 2178 1784 1788 1791 1792 1827 2186 
2190 1790 1833 1796 2194 2233 1764 1798 1800 
1839 1837 1802 1803 1808 2202 1843 1841 2209 
1807 1806 1849 1812 1816 1855 2213 2214 1819 
1820 1818 1861 1859 2218 2257 1825 1865 1823 
1824 1828 2265 2222 1829 1831 1832 2226 1834 
1871 1835 1836 1801 1838 1877 1804 1840 1842 
1845 1848 1844 1847 1846 1852 1887 1891 2289 
2246 2250 1851 1856 2293 2254 1895 2253 1860 
1899 2258 1862 1864 2261 1905 1863 1868 1867 
1872 1907 1870 1875 1876 1915 1878 1879 1880 
1917 1919 1883 1882 1888 1886 1892 1890 1927 
2286 1931 2290 1896 1933 2333 1898 1900 2298 
1941 1904 2301 1903 1908 2302 1906 1947 1912 
2306 1951 1914 1911 1913 1916 1884 1918 1920 
2318 1923 1928 1963 1924 2361 2322 1926 1932 
2326 1967 2369 1935 1973 1936 2330 1975 1971 
2334 2373 1977 1939 1938 1940 1944 1979 2337 
2377 1942 1943 1948 2342 1949 2349 2346 1952 
1989 1950 1954 2353 1955 1956 1995 2350 2354 
1959 1960 1997 1999 2358 2365 1968 1964 2001 
1966 1972 1970 2366 1615 1611 1613 1976 2013 
2370 1978 1619 1980 1982 1985 1983 1984 1988 
2025 1627 1987 1992 2029 1994 1631 1991 1635 
1996 2394 2033 1637 2397 1639 2000 2002 2045 
2008 2043 2041 2004 2006 2012 2047 2409 2010 
2053 2016 2011 2017 2018 2020 2057 2418 2421 
2417 2022 2061 2024 2028 2063 2065 2023 2026 
2032 2069 2469 2034 2036 2071 2035 2430 2433 
2038 2040 2042 2048 2044 2083 2485 2481 2049 
2052 2091 2087 2054 2050 2051 2056 2055 2095 
2093 2097 2058 2060 2059 2099 2497 2062 2465 
2064 2068 2462 2101 2066 2067 2072 2509 2466 
2111 2107 2073 2075 2074 2076 2473 2474 2079 
2078 2117 2080 2088 2084 2086 2090 2129 2092 
2490 2127 2096 2133 2141 2100 2537 2501 2505 
2102 2103 2104 2108 2502 2506 2112 2149 2147 
2113 2115 2116 2513 2510 2514 2119 2120 2518 
2123 2122 2128 2522 2124 2163 2565 2126 2132 
2526 2167 2131 2569 2136 2135 2175 2139 2140 
2144 2179 2538 2145 2142 2185 2143 2148 2545 
2183 2541 2151 2146 2187 2152 2549 2546 2155 
2154 2156 2554 2593 2159 2158 2160 2557 2558 
2205 2168 2203 2164 2561 2169 2166 2172 2170 
2211 2207 2566 2171 2176 2570 2574 2180 2184 
2577 2578 2221 2585 2182 2188 2625 2189 2192 
2227 2231 2586 2193 2195 2191 2196 2590 2237 
2199 2197 2198 2200 2597 2208 2204 2206 2212 
2247 2210 2609 2606 2215 2216 2614 2653 2219 
2217 2220 2617 2657 2618 2223 2224 2225 2622 
2228 2230 2229 2626 2232 2669 2267 2234 2273 
2235 2236 2275 2630 2238 2277 2239 2240 2279 
2245 2242 2243 2248 2645 2642 2244 2285 2249 
2251 2252 2646 2689 2649 2255 2256 2650 2654 
2291 2297 2260 2697 2259 2299 2658 2661 2701 
2262 2264 2263 2268 2270 2269 2266 2272 2311 
2274 2271 2313 2276 2241 2281 2278 2681 2280 
2678 2319 2283 2282 2288 2321 2685 2323 2682 
2287 2292 2329 2327 2690 2294 2295 2296 2335 
2694 2733 2300 2304 2698 2339 2305 2741 2303 
2702 2308 2309 2307 2312 2749 2310 2315 2314 
2316 2355 2317 2284 2320 2325 2328 2324 2725 
2722 2331 2332 2336 2734 2371 2375 2730 2338 
2340 2344 2379 2737 2777 2341 2345 2343 2381 
2348 2383 2745 2781 2389 2347 2352 2750 2387 
2351 2356 2391 2754 2793 2359 2357 2360 2399 
2758 2721 2797 2761 2362 2003 2363 2368 2405 
2009 2007 2367 2372 2766 2374 2376 2015 2774 
2378 2019 2380 2384 2778 2021 2385 2382 2388 
2386 2031 2027 2392 2393 2390 2395 2396 2794 
2364 2039 2398 2400 2798 2402 2408 2801 2443 
2449 2410 2406 2412 2411 2806 2413 2810 2416 
2414 2453 2455 2813 2415 2814 2420 2818 2419 
2457 2817 2422 2424 2428 2825 2865 2426 2467 
2432 2869 2826 2434 2436 2431 2435 2873 2404 
2401 2438 2440 2437 2837 2441 2445 2442 2448 
2444 2845 2450 2451 2447 2446 2452 2454 2853 
2491 2456 2495 2493 2461 2458 2460 2459 2464 
2463 2862 2468 2503 2472 2909 2866 2470 2475 
2471 2476 2874 2913 2870 2478 2477 2479 2480 
2878 2525 2482 2483 2488 2925 2523 2881 2489 
2529 2487 2486 2492 2531 2889 2494 2496 2533 
2933 2535 2498 2499 2500 2941 2539 2504 2902 
2508 2945 2507 2906 2512 2515 2511 2516 2914 
2910 2517 2519 2484 2520 2521 2918 2528 2563 
2921 2527 2532 2567 2969 2926 2530 2536 2534 
2930 2571 2934 2581 2540 2544 2579 2977 2543 
2542 2942 2548 2583 2985 2547 2551 2587 2552 
2550 2949 2946 2553 2555 2556 2953 2954 2559 
2524 2560 2958 2562 2568 2564 2962 2605 2965 
2572 2966 2970 2575 2573 2576 2613 3013 2615 
2621 2580 2584 2619 2978 2582 2982 2623 2588 
2629 2589 2592 2591 2989 2595 2594 2596 2993 
2994 2599 2637 2598 2600 3037 2603 2602 2608 
2643 2604 3005 3001 2610 2607 2611 2612 3049 
3009 2616 3014 2651 2655 2620 2624 3018 2659 
3057 3061 3017 2628 2631 2627 2632 2633 2634 
2635 2636 2673 3034 2638 2601 2639 2640 2641 
3038 2648 2644 3085 2647 2652 2691 3050 2693 
2656 2695 3053 3054 2660 2664 3101 2665 2662 
2663 2668 2703 2666 2667 2671 2670 3066 2672 
2709 2713 2674 2675 2676 2715 3074 2677 2717 
2679 2680 3041 2683 2688 3082 3081 2686 2687 
2692 3089 3090 3086 2696 3094 2735 3093 2699 
2700 3098 3097 3137 2705 2704 3102 2708 2706 
2707 2712 3106 2710 2751 2753 2714 2711 2716 
3110 2719 3117 2684 2718 2720 2757 3118 2723 
2728 2724 3122 2726 2731 2729 2727 2732 3129 
2767 2769 3133 3130 2736 2775 2771 3134 2738 
2740 2739 3138 3141 3177 3145 2744 2742 2743 
2748 2746 2747 2752 3189 2755 2756 2759 2760 
3161 3158 2765 2762 2403 2763 2768 2770 2407 
2772 3170 3166 2773 2776 3174 3173 3181 2779 
2780 2784 2785 2425 2782 2783 2423 2788 3182 
2789 2786 2429 2427 2787 3186 2829 2792 2791 
2795 2790 2796 2764 2439 2799 2800 3197 3198 
2802 2808 2803 3205 2809 2812 2807 2849 2847 
3249 2851 3209 2811 2816 2815 3214 2821 2820 
2824 2819 3218 2857 3257 3221 2822 2828 2823 
3225 2832 3229 2867 2827 3269 2830 3230 2833 
2871 2834 2836 2875 2838 2804 2840 2842 3245 
2843 2848 2850 2846 2852 2887 2893 2856 2855 
2854 2895 3293 2897 2858 2860 2859 2899 3258 
2861 2864 2901 2863 2868 2903 3266 2872 2907 
2876 2915 3274 3313 2877 2841 2844 2879 2880 
2919 3317 2882 2883 2885 2888 2884 2929 2886 
2892 3286 2891 2890 2894 2896 2931 2898 2900 
2904 2937 2905 3302 2908 2911 3309 2912 3306 
3349 3310 2916 2951 2917 2920 2923 2922 2928 
3361 2924 2963 3325 2927 2932 2967 3329 3326 
2936 3330 2935 2975 3334 2938 2939 2940 2979 
3338 2943 2944 2948 3345 3342 2947 2952 2987 
3346 3350 2950 2955 2956 3353 3354 2957 2959 
2960 3358 2999 3357 2968 2964 3362 3365 2972 
2973 2971 3370 2974 2976 3015 3373 2980 2981 
2984 3025 2983 2988 3382 3425 2986 2991 3389 
2992 3390 2990 3027 2995 2996 3394 3393 2961 
2998 2997 3397 3000 3039 3398 3003 3002 3008 
3445 3043 3010 3011 3006 3007 3012 3409 3047 
3016 3414 3055 3019 3020 3417 3418 3022 3065 
3021 3024 3023 3028 3026 3029 3031 3429 3426 
3030 3032 3033 3073 3035 3433 3036 3075 3004 
3040 3401 3045 3042 3048 3485 3442 3046 3051 
3052 3446 3056 3454 3091 3095 3450 3058 3060 
3059 3064 3099 3497 3062 3063 3068 3105 3465 
3462 3067 3069 3072 3070 3071 3076 3111 3079 
3077 3078 3044 3080 3083 3088 3525 3084 3123 
3481 3489 3087 3092 3490 3127 3493 3131 3096 
3494 3533 3100 3104 3498 3537 3103 3502 3108 
3143 3545 3109 3107 3147 3112 3549 3151 3506 
3115 3153 3113 3114 3116 3513 3119 3120 3159 
3125 3128 3522 3561 3565 3126 3132 3526 3135 
3136 3534 3573 3139 3140 3144 3541 3142 3148 
3185 3149 3146 3187 3152 3589 3150 3154 3193 
3155 3156 3195 3157 3121 3124 3160 3199 3558 
3597 2805 3165 3163 3162 3168 3164 3562 3169 
3167 3172 3566 3171 3176 3175 3574 3178 3217 
3179 3180 3184 3578 3183 3582 3188 2831 3586 
3192 3190 2835 3191 3194 3196 2839 3200 3237 
3598 3202 3208 3243 3201 3602 3210 3206 3212 
3211 3207 3609 3213 3216 3613 3215 3220 3224 
3259 3222 3621 3223 3228 3625 3226 3267 3232 
3626 3630 3234 3236 3235 3634 3204 3238 3240 
3277 3242 3248 3285 3283 3642 3250 3247 3246 
3252 3287 3251 3649 3253 3254 3256 3255 3295 
3653 3260 3264 3297 3265 3262 3305 3665 3261 
3263 3662 3268 3303 3270 3669 3271 3272 3670 
3273 3275 3276 3315 3279 3278 3241 3244 3280 
3319 3717 3282 3288 3685 3681 3682 3289 3292 
3327 3290 3729 3294 3291 3296 3333 3690 3337 
3299 3298 3300 3339 3741 3301 3304 3308 3702 
3341 3705 3311 3307 3312 3351 3710 3749 3314 
3316 3318 3281 3284 3320 3718 3322 3321 3323 
3328 3363 3324 3765 3761 3332 3726 3369 3769 
3331 3335 3336 3730 3734 3371 3773 3377 3340 
3737 3745 3344 3343 3348 3385 3742 3347 3352 
3746 3789 3355 3750 3356 3753 3754 3359 3360 
3399 3758 3757 3368 3364 3403 3762 3805 3367 
3366 3372 3407 3809 3766 3375 3770 3376 3374 
3415 3379 3381 3380 3378 3817 3383 3384 3388 
3785 3782 3386 3391 3387 3392 3790 3786 3793 
3395 3396 3794 3400 3797 3798 3439 3405 3402 
3408 3449 3411 3406 3412 3849 3806 3413 3410 
3416 3455 3461 3457 3419 3420 3424 3857 3818 
3421 3422 3423 3428 3430 3431 3427 3432 3471 
3829 3435 3434 3436 3438 3437 3404 3440 3477 
3801 3443 3441 3448 3444 3842 3483 3885 3841 
3447 3452 3491 3487 3846 3453 3451 3456 3893 
3854 3458 3501 3459 3460 3464 3897 3499 3505 
3463 3865 3862 3468 3469 3470 3466 3467 3472 
3511 3473 3474 3475 3476 3515 3913 3479 3478 
3480 3517 3878 3519 3482 3488 3523 3882 3486 
3529 3492 3886 3527 3496 3495 3894 3535 3933 
3890 3500 3504 3898 3503 3902 3508 3905 3543 
3901 3509 3510 3507 3512 3906 3909 3514 3516 
3518 3521 3557 3484 3520 3957 3528 3524 3925 
3922 3563 3531 3532 3926 3929 3530 3930 3567 
3569 3536 3538 3540 3539 3579 3937 3938 3542 
3544 3548 3945 3546 3547 3551 3552 3587 3950 
3550 3593 3553 3555 3554 3556 3954 3595 3559 
3560 3958 3599 3997 3203 3568 3962 3572 3969 
3970 3966 3570 3571 3576 3575 3581 3577 3580 
3219 3978 3584 3981 3585 3583 3588 3985 3982 
3231 3227 3592 3989 3990 3590 3233 3591 3633 
3594 3596 3239 3564 3600 3601 3961 3998 2 
5 3605 3608 3603 3643 3610 3606 3612 9 
3651 3614 3616 3611 3615 3617 3618 3657 3620 
3619 3624 3622 3623 3628 3629 30 3632 3671 
69 3627 3673 34 3636 3635 73 1 3641 
3637 3604 3638 38 3640 77 41 42 85 
3645 3648 3644 49 3647 3646 3652 3650 3691 
3654 3693 3655 3656 3658 3661 3659 3660 3699 
3664 3701 62 65 3663 3668 3666 3667 3709 
3672 3713 3674 3675 3676 78 3679 3677 3678 
3680 3719 82 3683 3688 3725 3689 3687 3686 
3692 90 3727 3694 3695 3696 3697 3698 3700 
3739 102 3703 3704 3708 3743 149 3711 106 
3706 3707 3712 113 114 153 3714 3715 3716 
3755 81 121 3684 3720 3721 3723 3722 3728 
3724 3763 129 3732 3731 169 3767 3735 3733 
3736 3775 3771 138 3777 3738 3740 3779 185 
3744 142 3748 3783 150 3747 3752 154 3751 
3756 193 157 197 161 158 3759 3760 3799 
162 3768 3803 3764 170 3772 3807 174 3813 
3776 3774 3811 3815 178 217 3778 3780 3819 
182 3781 3784 3788 186 3787 189 3792 3791 
3827 3833 3795 3796 3835 237 3837 198 3800 
3839 241 202 3802 3808 3845 3843 249 3812 
3810 3847 3814 3853 3816 214 3855 3851 261 
3821 3820 3824 222 3825 221 225 3822 3823 
3828 3863 3826 3831 3832 230 3867 3873 3834 
3830 3871 234 3836 3875 3804 3838 3840 242 
285 3848 3844 3883 246 3852 250 3891 293 
3850 3856 254 3858 3859 3860 3899 3861 3864 
3868 305 3869 3866 266 3872 3911 274 3870 
3874 3876 277 278 3917 3877 3879 3880 3919 
321 3881 3921 282 3888 3884 3923 286 329 
3889 3887 3892 3927 290 294 3895 3931 3896 
3935 337 297 3900 298 3904 341 3903 3908 
3907 310 3912 3951 3949 314 3910 313 3915 
3914 3916 3955 3918 317 318 3920 3959 325 
3928 3924 326 330 3932 373 3934 333 3936 
3939 3940 3944 3979 377 345 381 3942 3941 
342 3943 3948 3946 3947 349 3952 350 3987 
354 353 3953 3956 3995 357 358 3960 3999 
365 3965 3963 3968 366 3607 3967 369 3972 
13 3971 3975 3973 3976 3974 17 3977 3980 
3984 3983 385 382 3988 3986 389 3991 390 
386 29 3992 3993 3631 393 33 3994 3996 
37 3964 3639 4000 
type 1 4000 int
1 1 1 1 1 1 1 1 1 
1 1 1 1 1 1 1 1 1 
1 1 1 1 1 1 1 1 1 
1 1 1 1 1 1 1 1 1 
1 1 1 1 1 1 1 1 1 
1 1 1 1 1 1 1 1 1 
1 1 1 1 1 1 1 1 1 
1 1 1 1 1 1 1 1 1 
1 1 1 1 1 1 1 1 1 
1 1 1 1 1 1 1 1 1 
1 1 1 1 1 1 1 1 1 
1 1 1 1 1 1 1 1 1 
1 1 1 1 1 1 1 1 1 
1 1 1 1 1 1 1 1 1 
1 1 1 1 1 1 1 1 1 
1 1 1 1 1 1 1 1 1 
1 1 1 1 1 1 1 1 1 
1 1 1 1 1 1 1 1 1 
1 1 1 1 1 1 1 1 1 
1 1 1 1 1 1 1 1 1 
1 1 1 1 1 1 1 1 1 
1 1 1 1 1 1 1 1 1 
1 1 1 1 1 1 1 1 1 
1 1 1 1 1 1 1 1 1 
1 1 1 1 1 1 1 1 1 
1 1 1 1 1 1 1 1 1 
1 1 1 1 1 1 1 1 1 
1 1 1 1 1 1 1 1 1 
1 1 1 1 1 1 1 1 1 
1 1 1 1 1 1 1 1 1 
1 1 1 1 1 1 1 1 1 