# vtk DataFile Version 4.0
Generated by LAMMPS
ASCII
DATASET POLYDATA
POINTS 4000 float
1.14943 1.53441 1.46593 5.01161 1.5305 1.43883 3.11563 1.48426 3.52755 
2.99493 1.47311 -0.785958 5.01888 -0.479702 -0.59007 5.06374 3.42577 -0.491778 
9.10462 1.53746 1.38972 7.15732 3.55117 1.20255 7.09786 1.47495 3.43378 
8.91947 3.60969 -0.724305 12.5295 1.54194 1.40449 10.7648 3.74013 1.37223 
10.7372 1.46409 3.74955 10.7084 -0.534298 1.54304 12.6699 -0.43736 3.52181 
16.3716 1.55542 1.3701 14.6213 3.53583 1.35046 14.6131 1.55042 3.58179 
16.4209 3.47479 3.36675 16.3717 -0.389683 3.6611 20.231 1.37627 1.58279 
18.3394 1.67068 3.62242 20.198 3.55562 3.48222 22.1856 -0.54574 1.50326 
22.144 1.47467 -0.638642 18.3401 1.39839 -0.562048 20.219 -0.565052 -0.500776 
23.9991 1.60789 1.60756 25.9256 3.62953 1.6482 26.1397 1.45325 -0.621383 
25.9428 -0.549633 1.69428 27.8216 1.61324 1.53874 29.7517 3.7071 1.45482 
29.9427 1.60256 3.36421 29.7768 1.4655 -0.627964 27.9336 -0.529482 -0.464755 
27.819 3.58861 -0.530462 31.7924 1.48863 1.50827 33.5406 3.82809 1.32317 
31.6452 3.37079 -0.793994 33.7364 1.65942 -0.830849 35.5843 1.70614 1.46947 
37.5445 3.4535 1.40687 37.4396 1.61736 -0.557119 37.2156 -0.461997 1.59856 
35.6964 -0.515889 -0.670237 2.98982 3.68205 1.38027 4.98716 5.72445 1.48759 
2.93034 7.59628 1.42124 3.16266 5.4911 -0.559779 1.09564 5.65338 1.28486 
8.9026 5.67016 1.39132 7.03111 5.60536 3.4931 8.76142 7.8065 3.55439 
6.83526 5.7086 -0.734809 12.6145 3.47465 3.621 12.6406 5.71555 1.6674 
10.7187 5.64446 3.62319 16.5412 5.6758 1.38785 14.6453 5.62959 3.42073 
16.4415 3.63474 -0.702897 18.3045 3.6391 1.26542 21.9683 3.55937 1.41806 
20.0385 5.716 1.32398 18.198 5.65698 3.51245 22.0672 5.77524 3.50939 
19.9964 7.77571 3.52039 18.3097 5.56785 -0.792685 23.8489 5.64715 1.34802 
25.7956 7.85941 1.52477 24.0019 3.47101 -0.569473 25.7312 5.62775 -0.58081 
27.7668 5.80611 1.46127 29.7565 7.82911 1.39572 29.839 5.50752 -0.636669 
31.5204 5.73773 1.45858 33.7208 7.67998 1.49129 31.7785 7.84312 3.62562 
33.4022 5.73631 -0.603946 35.6184 5.52231 1.46453 37.339 7.75885 1.52195 
37.4207 5.6819 3.47764 35.4293 7.76077 -0.610406 4.95434 7.71413 3.36991 
5.00709 9.84211 1.29285 3.01154 9.82512 3.34976 5.20509 11.726 3.49823 
1.33842 9.81923 1.44971 5.00643 11.9199 -0.556931 2.9393 9.76817 -0.610962 
6.87798 7.64855 1.29372 8.96585 9.76623 1.45092 6.86885 9.8456 -0.584182 
10.8178 7.64968 1.54773 12.7695 7.6714 3.67558 12.6791 7.76802 -0.615539 
12.6205 9.76966 1.35369 10.8386 9.69877 3.4548 14.4679 7.83603 1.7 
16.4279 7.83428 3.59904 16.3424 9.88562 1.46721 14.4341 9.93687 3.62864 
16.3437 11.9963 3.65592 18.1785 7.78545 1.45403 22.0362 7.70071 1.31718 
20.1835 9.68442 1.32669 22.0906 12.0626 1.57242 18.3728 9.86373 3.5724 
20.1264 7.69664 -0.655092 22.182 9.77321 -0.57126 24.0988 7.76056 -0.549593 
23.965 9.82572 1.54406 25.75 11.9515 1.62165 23.9715 11.9115 -0.550314 
26.0052 9.83014 -0.485389 27.8894 7.74137 3.60296 29.7709 9.78198 -0.678747 
27.825 9.87386 1.54975 29.9547 11.8125 1.50635 31.78 9.83302 1.40073 
33.5834 12.0049 1.38346 33.7404 9.77467 -0.622311 31.8149 11.8307 -0.627495 
35.5402 7.65542 3.62643 39.3832 11.9762 3.55757 35.5029 9.90518 1.48852 
37.5625 9.872 3.50315 35.4453 11.8453 3.58681 37.4662 9.77206 -0.550566 
3.17185 12.0494 1.47414 5.03331 14.0476 1.55608 3.09195 16.2614 1.51259 
3.10684 13.8654 3.58552 3.04535 13.9397 -0.582343 6.94507 11.8714 1.46103 
8.76263 11.8169 3.53536 8.78356 14.0349 1.37137 6.85928 16.143 1.65059 
10.6794 11.874 1.34691 12.5252 11.8792 3.33213 12.6496 14.0393 1.35707 
10.8439 16.2256 1.52433 10.8025 13.972 3.47627 10.678 14.0986 -0.756264 
14.5196 11.9671 1.42254 16.2776 11.7435 -0.787771 16.275 13.891 1.52644 
14.4341 16.088 1.56076 14.4285 14.0993 3.7289 18.1801 11.9274 1.42654 
20.3565 11.8654 3.31811 20.232 13.9165 1.35928 18.3652 16.0278 1.38443 
21.8092 14.1667 3.64913 24.0673 13.9303 1.58843 25.9174 14.0156 3.46961 
27.8179 11.9132 -0.573147 27.774 13.9233 1.45574 29.7312 16.0752 1.36852 
29.7579 13.8397 -0.545752 31.6523 13.9437 1.4842 33.6759 15.8884 1.49913 
33.5944 14.1348 -0.766605 39.3739 11.8632 -0.67418 37.3495 11.856 1.41785 
39.2693 14.0945 1.33924 35.5248 13.8983 1.4274 37.4331 13.914 3.45442 
39.1938 16.215 -0.661052 37.4758 13.9303 -0.723115 4.93306 16.0068 -0.558204 
4.90637 18.2784 1.51977 3.04178 20.4337 1.63174 3.09758 18.3666 -0.562163 
8.60597 18.0431 1.46154 6.83329 20.2724 1.71388 6.82824 18.1744 3.51553 
8.76926 20.0863 3.69083 8.66719 20.2274 -0.462922 12.6672 15.9526 3.67864 
12.7371 18.3133 1.4511 10.6674 18.1139 3.67953 12.6676 20.0491 3.65028 
12.5967 20.3315 -0.360962 16.3818 18.2141 1.61101 14.4555 17.9453 3.73012 
14.5214 18.086 -0.452701 16.2947 16.0137 -0.630581 16.4154 20.3269 -0.56914 
22.0144 16.0708 1.4208 20.0768 18.3384 1.49179 18.0991 20.2558 1.4703 
18.3162 18.0804 3.64344 22.2444 18.0469 3.56094 25.9711 16.2072 1.52247 
24.2564 16.0827 -0.524131 24.0399 18.1361 1.32949 25.9709 19.994 1.3307 
27.8634 18.221 1.31798 29.8519 18.2476 3.40058 27.9206 20.2203 -0.779952 
31.664 15.861 -0.491745 31.7942 18.1516 1.4448 33.6818 18.137 -0.499747 
37.4806 16.1701 1.43013 39.4449 18.3388 1.5255 35.5545 18.2344 1.54962 
37.4822 18.1539 3.67976 37.2879 18.2666 -0.73463 4.96794 22.3505 1.51992 
3.04373 22.2012 -0.683423 4.95943 24.3904 -0.593043 5.05804 20.4013 -0.501116 
1.04154 20.2399 -0.728625 8.85336 22.2581 1.56916 6.92145 22.4275 -0.764329 
10.6832 20.0267 1.65548 12.5078 22.2464 1.68858 10.715 22.2953 3.76476 
10.61 22.2429 -0.611879 10.6455 24.3989 1.47176 14.6669 20.2219 1.68787 
16.347 22.4725 1.55273 16.3612 20.171 3.7854 14.5904 22.2799 -0.362668 
14.486 24.5132 1.55318 22.2337 20.2648 1.41481 20.1078 22.3461 1.56039 
22.1843 22.2559 3.62387 18.3203 22.4085 -0.669491 22.2138 24.2723 1.56917 
24.2894 22.1898 1.60304 26.1516 22.1735 3.58224 24.0995 20.3154 -0.860287 
26.1465 24.3188 1.4742 29.9661 22.3222 -0.654424 29.8103 20.1516 1.37506 
27.8529 22.1138 1.36702 29.5239 22.2308 3.48971 29.609 24.3248 1.54483 
27.8718 24.1771 -0.714059 33.6965 20.4059 1.56837 31.716 22.2553 1.53623 
31.7915 20.3039 3.54293 33.6214 22.445 3.58727 39.2202 22.4521 1.4876 
37.3929 20.3505 1.40345 35.4443 22.4791 1.45969 35.4363 20.0797 3.82908 
37.2583 22.2634 3.6729 37.3775 24.3658 1.58674 3.16541 24.3845 1.54108 
4.94566 26.6829 1.55143 3.03416 26.4338 3.58988 2.87912 26.5488 -0.576155 
3.03121 28.5892 1.57738 5.01593 28.3722 -0.446009 6.88597 24.3689 1.56769 
8.60217 26.4283 1.27745 8.8392 24.4191 3.51632 8.56826 28.5333 -0.68588 
10.7356 26.4835 -0.435775 12.6563 26.5139 1.55375 10.575 26.5205 3.55853 
16.4623 26.3486 1.68973 16.382 28.506 3.57503 18.1794 24.2416 1.62805 
20.1515 26.2191 1.64877 18.4809 26.6134 3.75865 20.2839 24.4177 3.52913 
22.1976 26.3863 3.67445 18.4832 28.4151 1.45487 20.2891 28.5073 3.529 
18.3233 26.4885 -0.720643 20.17 28.5789 -0.504451 24.2713 26.2764 1.59646 
26.0802 26.453 3.55011 25.9793 26.4778 -0.546665 23.9947 24.257 -0.503095 
27.9006 26.4103 1.3655 29.8075 26.5065 -0.681775 27.8779 28.619 3.61853 
33.5681 24.4496 1.46037 31.4949 26.6013 1.60556 33.518 26.4068 3.53698 
33.4698 26.4931 -0.454927 33.5223 28.4422 1.54166 39.3689 26.4373 1.57559 
35.4322 26.4545 1.70272 37.4921 26.4526 3.55548 35.4665 24.5397 -0.57232 
37.248 28.5045 1.49939 39.4438 24.4143 -0.608434 4.98189 30.6068 1.60619 
1.26801 30.8098 1.4795 5.00669 32.7426 -0.543574 6.92102 28.4896 1.60861 
8.83671 30.6228 1.42328 6.97892 30.6521 -0.422585 10.3776 28.5281 1.39679 
12.4708 30.6483 1.39955 12.4925 28.4263 3.68345 12.4319 32.6929 -0.671701 
12.6707 28.6296 -0.470929 14.5504 28.5686 1.74572 16.5616 30.722 1.55334 
14.4367 30.6753 3.67851 14.6019 30.7002 -0.433751 14.5284 32.72 1.36371 
22.2075 28.4788 1.57939 20.0858 30.6817 1.55539 22.1417 30.4892 3.7926 
18.2938 30.5826 -0.634334 18.4041 32.7603 1.49313 21.8335 32.786 1.44261 
20.2914 32.9011 -0.893102 25.9097 28.4438 1.5178 23.9767 30.7543 1.599 
24.073 28.3599 3.74563 26.0245 32.7476 1.41837 24.0507 33.0801 3.4966 
29.7329 28.6847 1.45385 27.8045 30.5814 1.36081 27.9175 28.5956 -0.648774 
31.8425 30.4291 1.58641 33.6205 30.7043 -0.549373 35.4444 30.7019 1.56116 
37.3863 30.5185 3.46302 39.127 28.6371 -0.546473 3.24392 32.663 1.56425 
5.02612 34.9721 1.45794 5.01274 32.8152 3.57208 3.10133 34.8305 -0.934522 
3.34593 36.9879 1.46681 6.7937 32.7679 1.49242 8.89925 34.8237 1.71102 
6.9319 35.0558 3.61866 6.78607 36.9156 1.36117 8.87925 36.9918 3.56148 
10.7896 32.8691 1.65504 12.6966 34.854 1.37892 10.8708 34.8495 3.53278 
12.6798 32.6779 3.56872 10.6753 34.759 -0.732571 16.4894 34.7861 1.5392 
16.4118 32.6942 3.58419 16.5426 32.6454 -0.384185 20.1069 34.9242 1.50013 
18.2996 34.8239 3.63551 20.2211 32.7398 3.57411 22.1595 34.8391 -0.577972 
24.1862 34.9708 1.36936 26.0016 34.8136 -0.660841 23.89 36.9311 -0.483782 
29.8684 32.6585 1.53899 27.8945 34.8038 1.5449 27.9908 32.7644 3.67069 
27.8638 36.9467 3.60933 33.6935 32.8395 1.41265 31.6946 34.8182 1.45376 
33.4707 34.8604 3.64725 33.7328 36.9793 1.61629 31.7386 32.7919 -0.388588 
39.465 34.9587 1.53999 37.474 32.7773 1.52926 35.592 34.9546 1.60437 
35.5166 32.8681 3.55935 3.09474 41.2494 1.47615 5.17245 39.2501 1.55252 
4.95796 36.8835 -0.769906 3.06664 38.9958 -0.648256 8.84292 41.0498 3.5966 
7.12176 41.2341 1.53396 8.82344 38.884 1.50744 7.05901 39.0353 3.4903 
6.94353 39.1037 -0.711692 10.7089 37.0237 1.45697 12.4708 39.1216 1.44738 
10.6671 38.9251 3.66412 12.697 36.9451 3.45059 14.5801 41.1566 1.45757 
16.3152 41.1612 -0.619292 14.4497 37.0915 1.54284 16.5914 39.1349 1.63022 
14.4679 39.0461 3.62313 20.2745 41.0945 3.71911 18.303 41.0941 1.64377 
18.4862 37.0252 1.53045 22.0369 36.9967 1.58217 20.2253 39.1038 1.62352 
18.4224 39.0343 3.59649 22.2481 39.0433 3.3649 18.2774 39.0784 -0.522506 
26.0983 36.9723 1.51685 24.1988 39.0691 1.59695 25.8333 38.9853 -0.596618 
24.054 41.1287 -0.650661 29.7523 41.2046 1.37679 29.7459 36.9183 1.61288 
27.773 39.0233 1.50862 29.7281 39.0756 3.69848 27.8417 36.963 -0.611433 
[...]
POINT_DATA 4000
FIELD FieldData 6
id 1 4000 int
4 8 402 2 5 45 12 47 406 
49 16 51 410 11 413 20 55 414 
457 417 24 418 461 23 22 18 21 
28 67 26 27 32 71 430 30 29 
69 36 75 73 34 40 79 38 39 
37 43 48 83 42 44 52 446 489 
46 453 56 450 60 454 57 59 63 
64 458 462 501 58 68 107 65 66 
72 111 70 76 115 513 74 80 119 
478 117 485 88 482 525 84 125 82 
87 92 86 91 493 93 96 490 95 
497 100 494 537 99 103 104 143 498 
101 102 105 108 147 145 106 509 110 
112 151 116 155 114 153 517 521 120 
518 557 118 123 128 163 522 122 127 
529 132 167 131 533 136 171 530 130 
135 137 140 175 534 139 541 144 179 
542 148 546 149 152 191 150 156 195 
154 121 159 124 160 558 161 158 165 
168 203 162 172 207 566 609 209 573 
176 570 613 213 180 574 174 177 217 
183 184 219 578 582 187 185 188 227 
192 590 229 193 196 194 199 164 200 
598 198 208 202 245 205 201 212 206 
211 216 610 210 251 215 220 617 214 
255 223 224 622 218 263 228 626 225 
267 230 231 232 630 271 269 235 236 
633 634 204 239 240 637 638 279 243 
248 642 242 283 285 247 252 649 289 
250 256 650 260 697 259 264 658 661 
662 299 701 258 301 268 666 266 265 
272 270 709 275 276 674 274 315 244 
280 678 277 319 241 288 284 325 287 
292 286 291 296 693 333 293 295 300 
694 294 335 303 304 702 298 339 343 
341 307 308 705 347 745 311 312 309 
316 314 320 718 281 323 328 725 322 
363 327 332 726 367 769 331 336 730 
733 330 340 737 337 344 738 741 342 
348 346 385 351 352 749 789 355 356 
754 395 353 324 359 360 757 3 368 
365 362 409 7 372 766 366 371 376 
770 773 15 17 375 380 774 421 19 
379 383 384 778 782 378 387 388 386 
25 31 391 392 790 389 35 33 433 
396 793 794 437 364 361 399 400 1 
401 405 404 408 802 449 412 806 416 
810 853 420 814 415 422 424 459 818 
423 419 426 465 428 467 825 432 471 
434 473 436 834 438 440 479 439 445 
442 481 443 845 448 483 842 881 447 
849 452 889 451 456 850 455 460 463 
464 503 858 862 901 466 505 865 468 
507 866 469 470 869 472 511 870 474 
475 476 441 477 877 444 480 519 878 
488 486 487 492 527 886 491 496 890 
495 500 502 499 504 539 543 902 506 
545 508 510 909 512 551 910 514 515 
516 555 914 917 484 520 559 918 957 
565 523 921 528 563 524 526 532 926 
531 933 536 973 577 535 937 540 575 
538 544 942 585 547 945 548 946 549 
550 589 552 591 989 553 554 556 595 
954 561 597 560 599 958 562 601 605 
568 603 962 1005 569 567 969 572 607 
966 1009 571 576 611 1013 580 615 581 
621 579 583 981 584 619 978 982 586 
587 985 588 627 629 592 990 1029 593 
594 596 635 1001 564 600 639 602 645 
641 608 604 643 606 612 1006 653 616 
1010 1053 614 620 1014 618 623 624 1018 
1022 663 625 665 628 1025 667 631 632 
671 673 636 1034 675 1073 677 640 679 
685 648 683 1085 646 647 652 1046 687 
651 656 1050 654 657 655 660 659 664 
1061 1062 699 703 668 1065 707 669 670 
672 1070 711 1109 713 676 715 681 644 
680 1078 682 688 1082 686 689 692 690 
691 696 1090 695 700 1094 1097 698 704 
1098 1102 706 708 1106 747 710 712 714 
753 716 1153 717 1081 684 719 720 1117 
722 721 765 723 728 724 1121 1165 729 
727 732 767 731 736 1130 771 734 777 
735 740 742 781 739 743 744 1138 1141 
783 746 748 787 750 751 752 1149 1150 
791 1189 755 756 758 797 759 760 1197 
762 403 763 768 407 809 772 1166 411 
776 817 775 780 1174 1177 779 784 1182 
425 785 786 427 788 1185 1186 429 829 
431 792 435 795 796 1193 1194 761 798 
764 799 800 841 808 1202 804 803 1205 
812 1206 1249 813 816 1210 1253 1213 820 
855 1214 815 822 861 824 859 1218 1222 
819 823 826 828 867 1226 830 832 871 
1230 836 1234 838 837 801 840 879 1201 
885 843 844 848 846 847 852 1246 851 
856 1250 857 854 860 1254 863 1261 864 
903 1265 868 1266 1269 872 911 873 874 
875 1273 876 1274 1313 1281 880 919 1278 
882 883 888 884 929 887 892 893 891 
1293 896 897 894 895 1297 900 1294 1337 
898 899 904 1302 905 906 907 908 1306 
1309 912 951 1310 1349 913 953 915 916 
955 1353 1317 920 925 922 961 923 928 
963 924 927 932 930 931 936 1330 1373 
934 935 940 941 938 939 1341 943 1338 
944 1342 947 1345 948 949 950 952 1350 
956 995 997 959 960 999 965 968 1003 
1362 964 967 972 1366 1409 970 971 976 
1011 977 974 1017 975 1377 980 979 983 
984 1378 1382 986 987 988 1027 991 992 
1390 993 994 1033 996 998 1037 1000 1039 
1002 1008 1402 1405 1004 1049 1007 1012 1406 
1449 1016 1410 1413 1015 1020 1414 1055 1021 
1019 1023 1024 1063 1461 1026 1028 1426 1030 
1069 1031 1032 1469 1035 1036 1433 1038 1040 
1438 1079 1477 1042 1045 1041 1043 1048 1442 
1445 1083 1047 1052 1446 1051 1056 1450 1453 
1493 1054 1057 1060 1454 1095 1058 1059 1064 
1099 1103 1066 1105 1067 1068 1465 1466 1505 
1071 1072 1470 1074 1075 1076 1473 1474 1077 
1044 1441 1080 1119 1088 1482 1485 1084 1481 
1086 1089 1129 1087 1092 1486 1489 1093 1133 
1091 1096 1131 1100 1494 1497 1135 1101 1104 
1143 1107 1108 1506 1110 1111 1112 1509 1113 
1114 1115 1116 1513 1514 1155 1118 1120 1517 
1159 1557 1122 1125 1123 1124 1128 1525 1126 
1127 1132 1526 1529 1167 1173 1136 1530 1533 
1134 1137 1140 1534 1175 1142 1139 1144 1179 
1581 1145 1146 1147 1148 1545 1546 1151 1152 
1549 1550 1154 1156 1553 1554 1195 1157 1158 
1160 1199 805 1162 1161 1163 1168 1562 1169 
1209 807 1172 1566 1569 1170 811 1171 1176 
1180 821 1178 1181 1183 1184 1578 1582 827 
1225 1187 1188 1190 1229 831 1191 1192 833 
835 1196 1198 839 1164 1200 1245 1208 1204 
1641 1212 1247 1216 1251 1257 1217 1220 1255 
1215 1221 1224 1259 1263 1618 1622 1621 1219 
1223 1228 1626 1227 1625 1232 1271 1630 1231 
1236 1275 1634 1238 1237 1240 1239 1637 1242 
1285 1243 1248 1283 1649 1252 1287 1256 1650 
1693 1260 1258 1262 1264 1303 1658 1267 1665 
1268 1270 1669 1272 1670 1276 1674 1713 1241 
1277 1279 1244 1280 1282 1288 1323 1284 1289 
1286 1329 1292 1327 1290 1333 1291 1296 1295 
1300 1335 1694 1301 1298 1299 1304 1343 1702 
1305 1307 1705 1308 1347 1706 1311 1709 1312 
1351 1314 1315 1316 1318 1357 1319 1717 1320 
1325 1321 1322 1328 1324 1326 1332 1331 1733 
1336 1730 1334 1340 1375 1734 1381 1339 1738 
1344 1379 1742 1346 1745 1348 1352 1391 1750 
1789 1354 1393 1355 1356 1754 1793 1358 1359 
1757 1360 1365 1363 1368 1403 1364 1369 1367 
1372 1407 1370 1371 1773 1376 1411 1770 1813 
1374 1777 1380 1774 1817 1383 1384 1419 1423 
1385 1386 1425 1387 1388 1427 1786 1389 1429 
1392 1431 1790 1394 1395 1396 1435 1361 1397 
1398 1437 1399 1801 1400 1439 1837 1401 1408 
1802 1805 1443 1412 1806 1809 1447 1416 1810 
1417 1415 1420 1814 1418 1421 1422 1424 1459 
1428 1825 1826 1430 1432 1829 1830 1471 1434 
1436 1834 1404 1440 1838 1479 1877 1448 1444 
1885 1452 1846 1849 1451 1456 1853 1491 1457 
1455 1460 1854 1857 1458 1462 1464 1858 1862 
1463 1467 1468 1866 1507 1472 1511 1909 1475 
1476 1515 1913 1478 1480 1878 1881 1521 1483 
1488 1484 1925 1487 1492 1527 1490 1496 1893 
1537 1495 1500 1498 1501 1502 1499 1503 1504 
1901 1902 1539 1941 1508 1510 1512 1910 1949 
1516 1914 1518 1519 1520 1918 1559 1522 1565 
1561 1523 1528 1965 1532 1926 1567 1573 1531 
1536 1571 1577 1535 1540 1934 1937 1538 1541 
1542 1543 1544 1942 1981 1547 1548 1945 1946 
1985 1551 1552 1989 1555 1556 1953 1954 1558 
1524 1560 1957 1601 1203 1563 1564 1568 1207 
1572 1570 1211 1576 1574 1575 1580 1579 1584 
1982 1583 1585 1586 1587 1588 1986 1589 1590 
1591 1592 1233 1593 1594 1235 1595 1596 1597 
1598 1961 1599 1600 1997 1998 1602 1645 1608 
2045 2041 1604 1603 1606 1609 1612 2006 1610 
1653 1613 1616 1614 1657 1617 1620 1655 1615 
2017 1624 2018 2022 2061 1623 1628 2026 1629 
1632 1671 2030 1631 1633 1636 1675 1635 1638 
1640 2077 1639 1642 1643 1648 2042 1644 1646 
1689 1647 1652 2089 1651 1656 1691 1654 1697 
1660 1695 1661 1662 1659 1663 1699 2058 1664 
2101 1666 1667 1703 1668 2066 2069 1672 1711 
1673 1676 1715 1677 1678 1679 1680 1685 1682 
1683 1688 1684 1686 1687 1692 1690 1696 1737 
1700 2094 1701 1698 1741 1739 1704 1707 1708 
2106 1710 2109 1712 1751 2110 1714 1716 1755 
2153 1681 1718 1719 2117 1720 1725 1721 1722 
1723 1728 2122 1729 1726 1727 1732 2126 1731 
1736 1735 1740 1775 1781 1743 1744 2138 2142 
2181 1746 1747 2145 1748 2146 1749 1752 1791 
2150 2189 1753 1756 1795 2154 1758 1759 1724 
1760 2158 2197 1765 1761 1762 1763 1768 2162 
1764 1769 1766 1767 2169 1772 1807 2166 1771 
1776 1780 2174 1778 1782 1821 1783 1779 1784 
1819 1823 2182 1785 1787 2185 1788 2186 1792 
1831 2190 2229 1794 1796 2194 1797 1798 1799 
1800 1839 1803 1808 2202 2205 1812 2206 2249 
1811 1816 2210 1815 1820 2217 1859 1818 1822 
1824 1861 2218 1863 1865 1827 1828 2226 1867 
1869 1832 2230 1871 2269 1833 1873 1835 1836 
2201 1804 1840 2238 2277 1842 1845 1843 1848 
2245 1883 2285 1847 1852 1887 1850 1851 1856 
2250 1891 2293 1897 1855 1860 1864 2261 2262 
1899 2301 1905 1868 2266 1907 1870 1872 2270 
1874 1875 1876 2273 2274 1841 2241 1844 1879 
1880 1882 1888 2282 1884 2281 2325 1886 1889 
1929 1892 2286 2289 1927 1890 1933 1896 2290 
1894 1895 1900 2297 1935 2337 1898 1903 1904 
2298 2302 1939 1943 1906 1908 2306 1947 2345 
1911 1912 2309 2349 1915 1916 2314 1917 1919 
1920 2317 2318 1922 1921 1923 1928 1924 2365 
2361 1969 1932 1930 1931 1936 1977 1940 2334 
2377 1938 1944 2338 2342 1979 2381 1948 2346 
1987 1950 1951 1952 1991 2389 1955 1956 2353 
1958 2321 1959 1960 2357 1999 1605 1962 1963 
1968 2362 1966 1607 1967 1972 2366 1970 1973 
1611 1971 1976 1974 1975 1980 2374 1978 2021 
1619 1983 1984 2378 2382 2025 1627 1988 2386 
1990 2029 1992 2390 1993 1994 1995 1996 2394 
1964 2000 2002 2004 2008 2445 2012 2047 2049 
2406 2449 2010 2016 2051 2053 2013 2410 2014 
2020 2015 2019 2023 2024 2063 2422 2421 2028 
2065 2067 2426 2425 2032 2071 2034 2036 2073 
2075 2035 2033 2038 2040 2039 2037 2438 2401 
2043 2048 2044 2046 2052 2087 2050 2056 2055 
2057 2054 2060 2097 2454 2059 2062 2064 2099 
2103 2501 2068 2465 2466 2070 2072 2470 2509 
2074 2076 2115 2079 2078 2080 2119 2477 2083 
2085 2082 2088 2121 2482 2086 2092 2127 2529 
2091 2093 2090 2096 2490 2095 2100 2135 2494 
2537 2098 2102 2104 2139 2141 2498 2502 2105 
2107 2108 2147 2505 2545 2111 2112 2151 2510 
2113 2114 2116 2081 2084 2118 2120 2481 2123 
2125 2128 2165 2525 2522 2129 2132 2131 2133 
2130 2136 2171 2173 2137 2134 2140 2177 2534 
2143 2144 2183 2542 2148 2546 2149 2152 2191 
2550 2589 2155 2156 2193 2157 2159 2124 2160 
2558 2163 2161 2168 2164 2167 2172 2209 2569 
2170 2176 2211 2570 2175 2180 2577 2179 2178 
2184 2221 2223 2581 2582 2621 2187 2188 2225 
2192 2231 2590 2195 2196 2233 2235 2593 2594 
2199 2198 2200 2203 2208 2204 2605 2601 2212 
2207 2606 2649 2213 2216 2214 2215 2220 2255 
2257 2219 2222 2224 2259 2618 2622 2227 2228 
2267 2625 2626 2232 2271 2629 2630 2234 2236 
2275 2633 2237 2239 2240 2279 2641 2242 2243 
2248 2244 2283 2246 2247 2252 2646 2251 2253 
2256 2254 2260 2657 2258 2264 2263 2299 2658 
2662 2701 2265 2268 2665 2666 2272 2311 2669 
2670 2709 2276 2313 2315 2673 2674 2713 2278 
2280 2288 2682 2685 2287 2292 2327 2686 2689 
2291 2296 2294 2295 2300 2304 2303 2339 2343 
2702 2305 2308 2307 2347 2705 2310 2312 2351 
2710 2749 2316 2355 2753 2284 2319 2320 2359 
2322 2323 2328 2324 2363 2326 2329 2332 2367 
2330 2331 2333 2336 2733 2773 2335 2340 2734 
2341 2344 2379 2383 2738 2781 2348 2387 2746 
2350 2352 2391 2750 2789 2354 2356 2395 2754 
2793 2358 2360 2757 2005 2003 2368 2364 2007 
2009 2369 2372 2409 2011 2370 2371 2373 2376 
2413 2770 2375 2380 2777 2384 2778 2782 2027 
2385 2388 2785 2786 2031 2392 2429 2393 2396 
2794 2001 2397 2398 2399 2400 2437 2798 2402 
2408 2443 2403 2412 2806 2416 2451 2411 2853 
2813 2414 2420 2817 2418 2424 2459 2461 2419 
2818 2822 2821 2428 2467 2427 2430 2432 2469 
2830 2869 2434 2436 2473 2475 2435 2404 2440 
2479 2442 2448 2447 2446 2452 2487 2849 2453 
2450 2456 2491 2493 2850 2455 2457 2460 2497 
2857 2463 2458 2462 2464 2499 2503 2862 2468 
2905 2471 2472 2511 2909 2474 2476 2513 2515 
2913 2441 2444 2478 2480 2517 2841 2483 2485 
2488 2885 2921 2489 2486 2492 2929 2496 2893 
2495 2500 2894 2504 2901 2902 2507 2506 2508 
2547 2512 2949 2514 2516 2553 2914 2519 2521 
2484 2518 2520 2559 2918 2523 2528 2563 2527 
2526 2532 2531 2533 2530 2536 2535 2540 2934 
2539 2541 2543 2538 2544 2938 2942 2548 2946 
2549 2551 2552 2950 2555 2554 2556 2953 2954 
2557 2561 2524 2560 2565 2562 2568 2603 2962 
2567 2566 2572 2571 2573 2576 2973 3013 2575 
2574 2580 2579 2583 2578 2584 2981 2978 2982 
2585 2587 2586 2588 2985 2591 2592 2631 2990 
3029 2595 2596 2994 2597 2599 2564 2598 2600 
2961 2602 2608 2604 2645 2607 2609 2612 2610 
2611 2613 2616 2651 3010 2614 2615 2617 2620 
2619 2623 2624 3021 3022 2627 2628 3025 3026 
2632 2671 2634 2635 2636 2675 3034 2637 2638 
2639 2640 3038 3077 2642 2643 2648 2683 2681 
3045 2647 2652 2687 2650 2653 2656 2691 3050 
3093 2654 2655 2660 3097 2659 2661 2663 2664 
3058 3101 2667 2668 2707 3065 3066 2672 2711 
3069 3070 3109 2676 2715 2644 2677 2678 2679 
2680 2717 2688 2684 2725 2721 3125 2692 2729 
2690 2693 2696 2731 2694 2695 2697 2700 2735 
2698 2699 2703 2704 2741 2706 2708 3106 3145 
2712 2751 3110 2714 2716 2755 3114 2718 2719 
2720 2722 2723 2728 2763 2765 2726 2727 2732 
2767 2769 3169 2730 2736 3173 2737 2740 3134 
2739 2742 2743 2744 2779 2783 2745 2747 2748 
2752 2791 3150 2756 2795 3154 3193 2724 2758 
2759 2760 2761 2799 3157 3158 3161 2405 2762 
2768 2407 2766 2772 2771 2776 2417 2415 2774 
2775 2780 3174 3177 2423 2784 3181 3182 2787 
2788 3186 2431 2790 2792 2829 2433 2796 2764 
2439 2797 2800 3197 2802 2808 2843 2804 2805 
2803 2801 3205 2812 2847 3206 3249 2810 2816 
2851 2811 3210 2814 2820 2855 3217 2824 2859 
3222 3221 2826 2828 2865 2867 3226 2832 2871 
2831 2834 2836 2873 2875 2833 2838 2840 2877 
2879 2839 2845 2842 2848 2883 3245 3242 2846 
2852 2887 3246 3289 2856 2891 3250 3293 2854 
2860 2897 3254 2861 2863 2858 2864 2903 3261 
3258 2866 2868 2907 2870 2872 2911 3270 2874 
2876 2915 2844 2878 2880 2919 2882 2888 2884 
2889 2886 2892 3286 2890 2896 2931 3333 2895 
2900 2937 3294 2899 2898 2904 2939 2941 2943 
3302 2906 2908 2945 2947 3305 3345 2910 2912 
2916 2955 3353 2881 2917 2920 2957 2959 3317 
2923 2925 2922 2928 2924 2927 2926 2932 2967 
3326 2933 2930 2936 2971 2935 2940 2977 3337 
2944 2983 3338 3342 2948 3385 2951 2952 2989 
3349 3350 3389 2956 2995 2958 2960 2997 2999 
3358 2963 2965 2968 3005 2964 3365 3361 2969 
2966 2972 3366 2970 2976 3011 3373 2975 2974 
2980 3377 2979 2984 3381 3421 2987 2986 2988 
3027 3386 2991 2992 3031 2993 2996 3033 3001 
2998 3000 3037 3002 3003 3008 3043 3041 3006 
3007 3009 3012 3016 3053 3413 3015 3017 3020 
3014 3417 3018 3019 3023 3024 3422 3028 3067 
3425 3426 3465 3030 3032 3430 3035 3036 3073 
3075 3004 3039 3040 3079 3401 3437 3042 3048 
3442 3046 3047 3049 3052 3087 3089 3051 3056 
3450 3054 3055 3057 3060 3059 3061 3062 3063 
3064 3099 3103 3458 3461 3462 3068 3105 3071 
3072 3111 3469 3470 3509 3074 3076 3113 3115 
3474 3513 3044 3078 3080 3081 3117 3478 3082 
3083 3085 3088 3123 3086 3092 3129 3486 3090 
3091 3096 3133 3490 3094 3095 3100 3135 3137 
3098 3102 3104 3139 3141 3143 3498 3502 3107 
3108 3147 3506 3112 3149 3510 3549 3116 3153 
3514 3084 3118 3119 3120 3159 3557 3122 3128 
3163 3165 3525 3565 3126 3127 3132 3167 3130 
3131 3136 3530 3533 3140 3175 3534 3138 3142 
3144 3179 3538 3542 3146 3148 3187 3585 3151 
3152 3189 3191 3550 3589 3155 3156 3124 3121 
3160 3199 3558 3597 3162 3168 3164 2807 2809 
3166 3172 3209 3170 3171 3176 3570 2815 3180 
3574 2819 2823 3178 3183 3184 3581 3582 2825 
2827 3185 3188 3190 3192 3590 2835 3194 3195 
3196 2837 3198 3200 3202 3208 3204 3212 3247 
3606 3216 3213 3211 3214 3220 3255 3257 3614 
3657 3617 3218 3224 3259 3263 3219 3661 3228 
3267 3230 3232 3269 3229 3231 3669 3234 3236 
3273 3275 3634 3673 3241 3238 3240 3277 3279 
3239 3243 3248 3283 3641 3642 3252 3287 3646 
3251 3253 3256 3291 3653 3650 3693 3260 3295 
3297 3654 3299 3262 3264 3301 3303 3658 3662 
3265 3266 3268 3271 3272 3309 3709 3274 3276 
3313 3315 3713 3244 3278 3280 3285 3282 3288 
3284 3685 3682 3725 3292 3329 3290 3296 3331 
3690 3733 3300 3335 3697 3694 3737 3298 3304 
3341 3343 3701 3698 3702 3307 3306 3308 3311 
3310 3312 3314 3316 3281 3319 3321 3318 3320 
3681 3323 3325 3322 3328 3327 3332 3729 3330 
3336 3371 3730 3334 3340 3339 3344 3742 3781 
3347 3346 3348 3387 3746 3785 3351 3352 3391 
3789 3355 3354 3356 3393 3395 3357 3359 3324 
3360 3397 3399 3363 3362 3368 3403 3405 3762 
3805 3367 3369 3372 3407 3766 3370 3376 3773 
3813 3375 3374 3380 3415 3379 3383 3378 3382 
3384 3782 3821 3388 3786 3390 3392 3431 3790 
3394 3396 3433 3435 3793 3364 3398 3400 3797 
3798 3402 3408 3404 3406 3409 3412 3447 3410 
3411 3416 3451 3453 3414 3420 3455 3418 3419 
3423 3424 3459 3861 3427 3428 3825 3826 3429 
3432 3829 3830 3434 3436 3475 3438 3439 3440 
3477 3443 3445 3448 3441 3483 3485 3446 3449 
3452 3487 3846 3456 3491 3493 3850 3454 3457 
3460 3495 3497 3463 3464 3858 3862 3466 3467 
3468 3905 3471 3472 3511 3869 3473 3476 3515 
3444 3479 3480 3481 3517 3519 3878 3482 3488 
3523 3882 3489 3492 3527 3929 3496 3531 3933 
3494 3500 3537 3937 3499 3501 3503 3504 3539 
3541 3543 3898 3902 3505 3507 3508 3545 3547 
3906 3512 3551 3949 3516 3555 3913 3914 3484 
3518 3520 3559 3921 3522 3528 3563 3526 3529 
3532 3567 3569 3969 3536 3571 3573 3930 3535 
3540 3575 3934 3977 3544 3583 3938 3941 3942 
3981 3546 3548 3587 3946 3552 3591 3553 3554 
3556 3593 3595 3953 3954 3521 3524 3560 3599 
3957 3958 3203 3201 3562 3568 3561 3564 3601 
3962 3207 3566 3572 3966 3576 3970 3215 3577 
3580 3223 3578 3579 3584 3227 3225 3586 3588 
3986 3592 3990 3233 3235 3594 3596 3994 3237 
3598 3600 3998 3602 3608 3645 3605 3603 6 
3612 9 10 53 3610 3616 3651 13 3613 
14 3620 61 3618 3622 3624 3659 3663 3621 
3626 3628 3667 3630 3632 3671 3636 3675 3635 
3604 77 3638 3640 3677 3679 41 85 3643 
81 3648 3644 3647 3649 3652 3687 3689 50 
3656 3691 54 97 3655 3660 3695 62 3664 
3665 3666 3668 3705 109 3670 3672 3711 3674 
3676 3715 78 3678 3680 3717 3683 3688 3723 
3684 89 129 3686 3692 90 133 3696 3731 
94 3700 3735 3699 3703 3739 141 98 3704 
3741 3743 3707 3706 3708 3745 3747 3710 3712 
3749 3751 113 3714 3716 3719 157 3718 3720 
3759 3721 3722 3728 126 3727 3726 3732 3767 
3769 3736 3771 134 3734 3740 3777 181 138 
142 3738 3744 3779 146 3748 3787 3750 3752 
3753 3755 3754 3756 3795 3757 197 3761 3724 
3758 3760 3799 3763 3765 3768 169 166 3772 
3807 3809 173 170 3770 3776 3775 3774 3780 
3815 221 3783 178 3778 3784 3819 182 186 
3788 189 190 3791 3792 3794 3796 3835 237 
3764 3801 3800 3837 3802 3803 3808 249 3806 
3812 3810 3811 3816 3851 3817 3820 3814 257 
222 3818 3822 3823 3824 226 3827 3828 3831 
3832 234 233 273 3833 3834 3836 3873 3875 
238 3804 3838 3839 3840 3877 3842 3843 3845 
3848 3841 3883 3881 246 3847 3849 3852 3887 
3889 253 3853 3856 3893 254 3854 3855 3857 
3860 3897 262 261 3859 3863 3864 3899 3903 
305 3865 3866 3867 3868 3870 3871 3872 3874 
3876 3915 278 3844 3879 3880 3917 3919 282 
3885 3888 3923 3925 3886 3892 329 290 3890 
3891 3896 297 3894 3895 3900 302 3901 3904 
3939 3943 306 3907 3908 3947 310 3909 3910 
3911 3912 349 3951 313 3916 318 317 357 
3884 3918 3920 3922 3928 3924 3961 326 3926 
3927 3932 369 3967 3931 3936 3971 334 377 
3935 3940 338 3944 381 3979 3983 345 3945 
3948 3985 350 3950 3952 354 3955 3956 3995 
321 358 3959 3960 397 3997 3999 3963 3965 
3968 3607 3609 3972 3611 370 373 3973 3976 
374 3615 3974 3975 3980 382 3619 3623 3978 
3982 3984 3625 3627 3987 3988 3631 3629 390 
3989 3991 3992 393 394 3633 3993 3996 3639 
398 3964 3637 4000 
type 1 4000 int
1 1 1 1 1 1 1 1 1 
1 1 1 1 1 1 1 1 1 
1 1 1 1 1 1 1 1 1 
1 1 1 1 1 1 1 1 1 
1 1 1 1 1 1 1 1 1 
1 1 1 1 1 1 1 1 1 
1 1 1 1 1 1 1 1 1 
1 1 1 1 1 1 1 1 1 
1 1 1 1 1 1 1 1 1 
1 1 1 1 1 1 1 1 1 
1 1 1 1 1 1 1 1 1 
1 1 1 1 1 1 1 1 1 
1 1 1 1 1 1 1 1 1 
1 1 1 1 1 1 1 1 1 
1 1 1 1 1 1 1 1 1 
1 1 1 1 1 1 1 1 1 
1 1 1 1 1 1 1 1 1 
1 1 1 1 1 1 1 1 1 
1 1 1 1 1 1 1 1 1 
1 1 1 1 1 1 1 1 1 
1 1 1 1 1 1 1 1 1 
1 1 1 1 1 1 1 1 1 
1 1 1 1 1 1 1 1 1 
1 1 1 1 1 1 1 1 1 
1 1 1 1 1 1 1 1 1 
1 1 1 1 1 1 1 1 1 
1 1 1 1 1 1 1 1 1 
1 1 1 1 1 1 1 1 1 
1 1 1 1 1 1 1 1 1 
1 1 1 1 1 1 1 1 1 
1 1 1 1 1 1 1 1 1 