# vtk DataFile Version 4.0
Generated by LAMMPS
ASCII
DATASET POLYDATA
POINTS 4000 float
0.285098 1.93127 1.78735 4.7031 1.79586 1.74503 2.41012 3.89778 1.88201 
2.40089 1.84334 3.75723 4.48422 3.89927 3.91961 0.451675 3.87348 3.84041 
2.37208 -0.13686 1.81107 2.59823 2.04909 -0.241994 8.49711 1.6439 1.80913 
6.39916 3.91654 1.74178 6.405 1.87147 3.77727 8.48481 3.77507 3.78253 
6.32503 -0.316702 1.61963 8.54236 -0.16729 3.92056 8.45651 3.8037 -0.284601 
12.3968 1.805 1.80285 10.3875 3.8276 1.70749 10.5085 1.75742 3.88446 
12.4012 3.88556 3.70601 10.4261 -0.292239 1.96943 12.5682 -0.268962 3.89025 
10.3895 1.67717 -0.240625 16.3518 1.91224 1.7104 14.3009 3.97142 1.725 
14.3526 1.79898 3.7295 16.1949 3.81469 4.01829 14.2937 1.84783 -0.346797 
20.2168 1.94676 1.787 18.299 3.89557 1.89608 22.2949 3.84727 1.78404 
18.2954 1.7874 3.72081 22.238 1.8021 3.80659 20.3028 3.94133 3.74733 
22.3802 -0.300535 1.82769 20.2197 -0.17177 3.78006 18.1735 -0.265999 1.72147 
24.1395 1.70657 1.70428 24.2868 3.72724 -0.31143 26.204 3.76431 1.65435 
26.1053 1.74092 3.9106 24.2928 3.9584 3.79821 24.1327 -0.133163 3.95293 
26.1622 -0.351537 1.89815 28.054 1.63194 1.76253 30.0348 3.77077 1.82793 
30.1589 1.81709 3.81476 27.9165 3.80594 3.81648 28.2508 -0.302954 4.10343 
30.1801 -0.279673 1.80518 28.1688 3.75865 -0.144132 28.1649 -0.27447 -0.17683 
32.2352 1.61741 1.79555 34.0117 3.74703 1.88302 34.044 1.85323 3.87903 
32.117 3.80135 3.84838 34.0689 1.87029 -0.376679 38.151 1.84333 -0.207779 
36.1859 1.85173 1.77884 38.0882 3.98111 1.77183 37.996 1.94324 3.8437 
36.0702 3.85272 3.92986 36.1001 3.70429 -0.265057 39.9569 -0.027352 3.76709 
36.22 -0.248745 3.78034 40.0779 3.82982 -0.18595 4.43066 6.19272 1.88531 
2.37379 8.16011 1.85075 2.47821 5.97807 3.84718 0.271836 7.83094 3.77216 
4.48658 8.09439 3.86823 0.330459 5.98965 1.82711 8.30724 5.84343 1.59089 
6.45694 8.18652 1.92495 6.45688 5.99827 3.83801 8.43603 8.02185 3.84802 
12.2428 5.87947 1.9038 10.1591 7.93723 1.6643 10.1 5.91291 3.84014 
12.3812 7.97796 3.76127 16.1925 6.00336 1.65391 14.3396 8.07042 1.68655 
14.3533 5.97616 3.69883 16.3599 7.98172 3.7666 20.3998 5.98557 1.72659 
18.369 7.97956 1.61405 22.3728 7.96955 1.56295 18.3895 5.88802 3.76056 
22.2047 6.01322 3.87215 20.3602 7.96957 3.6891 24.317 5.88411 1.69785 
26.1786 8.00431 1.77078 26.1234 5.94631 3.79412 24.2286 7.93507 4.00614 
26.194 5.70493 -0.291117 28.0384 5.92377 1.63668 28.2228 7.91552 -0.370438 
30.1912 8.06278 1.7429 29.8863 5.92015 3.69278 27.944 7.98632 3.86803 
34.176 5.79319 -0.278946 31.9966 5.81424 1.81996 34.0467 7.92857 1.86925 
34.1379 5.85526 3.83237 32.0454 7.94609 3.79966 39.9511 8.15032 -0.114045 
38.1482 5.84807 -0.259569 36.0596 5.74319 1.6848 36.0715 7.89033 -0.230265 
37.9518 8.07297 1.7365 38.0509 5.98344 3.87453 36.0836 7.87382 3.68648 
2.33985 10.2298 -0.302886 4.4427 10.0906 1.87002 2.33035 12.1199 1.72989 
2.20182 9.96249 3.96795 4.40668 12.0652 3.91126 0.213442 10.1012 1.90907 
0.262022 12.089 3.84517 0.292286 12.0906 -0.235063 8.36514 10.1124 1.88042 
6.29464 12.1805 1.9169 6.35738 10.0015 3.88385 8.4805 11.9976 3.95185 
8.36662 11.9669 -0.386712 10.2691 10.0028 -0.225582 12.3151 10.0718 1.84838 
10.4198 12.0647 1.85449 10.3162 10.0063 3.91041 12.3324 12.0907 3.72118 
12.2966 11.9726 -0.340215 16.5841 10.0714 1.57087 14.2516 11.9782 1.62108 
16.305 11.9529 -0.385853 14.2039 10.0013 3.91627 16.2841 11.8921 3.7034 
20.3693 10.0202 1.73944 18.2899 12.0642 1.68553 22.4103 12.115 1.75543 
18.3878 9.92285 3.76109 22.2341 10.0119 3.82242 20.2967 12.0796 3.8212 
22.3047 10.1527 -0.220965 24.3207 9.97335 1.7371 26.0648 12.1197 1.7002 
26.2205 10.0023 3.79037 24.0859 12.0124 3.85605 24.1439 11.9793 -0.358701 
30.2093 9.93424 -0.303796 28.1659 9.8668 1.56598 30.1144 12.0056 1.62775 
30.0672 10.0208 3.70391 28.1509 11.9389 3.59242 32.1457 9.96284 1.64036 
34.0413 12.1908 1.66112 33.951 9.9879 3.83611 32.0678 12.1331 3.78118 
34.1315 9.95762 -0.174645 36.0019 10.1672 1.89275 37.9259 12.1268 1.76718 
37.9542 10.1035 3.97293 35.7911 12.1364 3.90188 36.0538 12.1774 -0.49227 
37.8289 10.0679 -0.323568 2.41816 14.1292 -0.281485 4.47899 14.1751 1.78663 
2.41658 16.1552 1.82283 2.39536 14.0467 3.87835 4.45323 16.0051 3.79244 
0.308281 14.144 1.838 8.45687 14.1265 1.65868 6.37838 16.2318 1.64369 
6.51353 14.1617 3.75947 8.52341 16.1638 3.97487 6.38085 14.0543 -0.342647 
10.3677 14.0562 -0.491494 12.3007 13.9988 1.50052 10.4098 16.1636 1.78826 
12.3484 16.2278 -0.324294 10.2086 14.146 3.74272 12.4316 16.1734 3.76372 
10.2047 18.3432 -0.315318 16.1748 13.9789 1.69767 14.0938 16.2293 1.71777 
14.2864 13.935 3.6084 16.2503 16.0956 3.85074 14.2285 14.3219 -0.403106 
16.2312 16.1815 -0.38763 20.1851 14.2071 1.83956 18.2256 16.0449 1.8266 
22.4081 16.3117 1.74358 18.3661 14.0632 3.81287 22.1589 14.0998 3.78651 
20.2688 16.2669 3.64927 24.2793 14.1547 1.60521 26.1874 16.1396 1.76624 
26.2777 14.0667 3.6856 24.352 16.1711 3.85936 29.9842 14.1354 -0.236483 
28.0456 14.1105 1.77282 28.1144 16.1797 -0.293254 30.0197 16.103 1.81276 
29.9983 14.0131 3.78357 27.9502 16.1312 3.89376 30.013 18.2222 -0.383604 
32.0542 14.175 1.88322 33.7965 16.1499 1.65102 33.9991 14.1735 3.82975 
31.9398 16.1284 3.89486 34.0754 14.2585 -0.387754 31.859 16.2182 -0.487443 
39.9809 16.1857 -0.187569 39.9751 16.0098 3.90363 36.009 14.2006 1.82946 
38.0204 16.0053 1.95989 37.9517 13.9706 3.91852 35.9964 16.0414 3.89491 
36.0205 16.1812 -0.233733 38.0959 14.1514 -0.370519 4.23685 18.1632 1.78886 
2.30351 20.0059 1.89941 4.05313 22.2582 1.80097 2.47049 17.9773 3.88679 
0.252436 20.0724 3.92492 2.43332 22.2279 3.84757 4.36413 20.2027 3.94055 
0.420027 22.2659 1.87651 4.20037 20.0856 -0.134486 8.23473 18.1124 1.73427 
6.38476 20.4156 1.84922 8.41017 22.2528 1.80461 6.36353 18.3653 3.81399 
6.44888 22.449 3.83213 8.51431 20.3058 3.79153 6.22962 18.3096 -0.111104 
6.28645 22.3213 -0.237037 8.34389 20.2841 -0.186239 12.2358 18.1965 1.60891 
10.3519 20.2841 1.7215 12.429 22.4081 1.75311 10.5873 18.2432 3.82213 
10.4319 22.3479 3.9257 12.2976 20.3423 3.87665 10.2203 22.5913 -0.287201 
12.2615 20.2821 -0.333738 14.4662 18.3858 -0.289002 16.3228 18.1327 1.82474 
14.2323 20.3085 1.76549 16.1718 22.3065 1.77534 14.2301 18.1772 3.75986 
14.2888 22.4818 3.8542 16.3419 20.3001 3.75575 16.2858 20.2673 -0.387598 
20.1263 18.2156 1.70279 18.2578 20.2967 1.82581 22.1503 20.1612 1.79706 
20.1472 22.2726 1.78507 18.26 18.0094 3.78796 22.3569 18.2835 3.90191 
18.2279 22.4047 3.80482 20.2814 20.0692 3.83086 22.2007 22.5417 3.85343 
18.1909 22.3654 -0.267778 22.1682 22.2817 -0.283642 24.3657 18.2043 1.70802 
26.182 20.3743 1.64845 23.966 22.3151 1.80028 26.152 18.2371 3.87004 
24.074 20.3545 3.75136 26.0927 22.2624 3.95219 26.0957 18.2324 -0.375393 
24.156 20.2618 -0.183436 28.0535 18.1142 1.66527 30.1391 22.3408 -0.174845 
30.0744 20.3685 1.80951 28.1804 22.5108 1.85709 30.0713 18.0616 3.89313 
28.0525 20.2593 3.67502 30.0879 22.2771 3.96384 28.1097 20.1149 -0.142932 
33.8657 18.1794 -0.395006 31.9403 18.2921 1.60052 33.9925 20.1075 1.81936 
32.0844 22.2719 1.86966 34.0541 18.0217 3.65269 32.1588 20.049 3.75079 
34.1643 22.2631 3.86828 32.1169 20.3292 -0.322485 33.9867 22.4114 -0.154408 
39.9153 18.1691 2.09734 35.9671 17.9203 1.83102 37.9417 22.0455 -0.184876 
37.9035 20.0236 1.8713 35.9688 22.2261 1.9386 37.9308 18.0392 3.98781 
36.0345 20.1922 4.04208 38.0003 22.2114 3.99388 35.9361 20.1229 -0.148313 
39.8611 20.147 -0.189759 37.953 18.0529 -0.114031 2.22636 24.2314 1.78815 
0.229621 26.2134 1.67991 4.22559 26.3475 1.80797 2.38583 26.3676 3.73465 
4.26346 24.3081 3.72299 4.13441 24.2297 -0.34345 2.31881 26.3239 -0.165187 
6.29281 24.2953 1.80544 8.26477 26.3628 1.69875 6.30018 26.2923 3.76681 
8.53387 24.3032 3.98373 6.23499 26.3774 -0.118494 10.4183 26.5227 -0.199529 
10.4453 24.5461 1.89558 12.6466 26.4711 1.66608 10.2744 26.6135 3.78904 
12.3493 24.5498 3.93872 12.4056 24.3773 -0.276136 14.4884 26.2782 -0.454268 
14.433 24.3844 1.65391 16.1557 26.5477 1.69987 14.2817 26.284 3.86653 
16.25 24.4056 3.75541 16.284 24.4124 -0.547684 18.1459 24.4492 1.66942 
22.0578 24.4249 1.82837 20.1592 26.4005 1.90238 18.1509 26.4854 3.73632 
20.1241 24.4813 3.94706 22.1438 26.413 3.95076 18.5131 26.4395 -0.280393 
22.0598 26.3583 -0.246867 26.1256 24.3698 1.79692 24.2169 26.4093 1.75546 
24.2527 24.435 3.81618 26.3421 26.2673 3.69868 26.1496 26.405 -0.133771 
24.2479 24.3435 -0.208163 30.3587 24.4152 2.05221 28.2997 26.4306 1.94525 
28.2653 24.3441 3.93511 30.3015 26.2956 4.11188 30.0548 26.549 -0.142189 
28.2676 24.3311 -0.258409 34.1272 24.537 1.99593 32.1581 26.4453 1.88601 
32.3289 24.2796 4.13208 34.1651 26.5324 4.01319 40.0447 24.3358 3.89663 
37.9756 24.2912 1.86593 35.8619 26.2904 1.91755 36.1014 24.2241 4.11033 
37.896 26.4411 3.9637 2.34211 28.4192 1.82449 0.4176 30.5108 1.87588 
4.42243 30.4517 1.74199 2.43736 30.41 4.0604 4.38348 28.3686 3.79321 
0.296346 28.5306 3.73447 6.31136 28.5116 1.76908 8.38762 30.6174 1.72895 
6.31016 30.3441 3.87605 8.34881 28.4307 3.73016 10.383 28.5245 1.67255 
12.4375 30.6023 1.76275 10.3251 30.4837 3.73989 12.3558 28.5595 3.83676 
10.5355 30.6042 -0.245785 14.3386 28.5615 1.59162 16.3966 30.6073 1.52849 
14.4749 30.5426 3.55582 16.1128 28.4097 3.83046 14.2356 30.5862 -0.182913 
16.2825 28.3575 -0.294454 18.224 28.5383 1.7463 22.1517 28.4628 2.10106 
20.1567 30.4995 1.63837 18.3017 30.5049 3.89541 20.2059 28.445 3.91595 
22.1856 30.4777 3.97053 22.3114 30.6529 -0.162889 26.1744 28.4023 1.85758 
24.2224 30.4099 1.87041 24.3085 28.3118 3.85967 26.2711 30.5302 3.91418 
26.3149 30.4947 -0.249979 30.188 30.4259 -0.199878 30.1285 28.5332 1.89888 
28.2454 30.5115 1.94425 28.2175 28.439 3.95047 30.1354 30.6525 3.95237 
28.1076 28.406 -0.201263 32.1197 28.4952 -0.17531 34.1538 30.5291 -0.0436245 
34.0703 28.5769 1.90293 31.9699 30.4837 2.04401 32.1234 28.5774 3.9953 
34.1022 30.4944 3.9947 37.8683 28.3212 2.04131 36.0591 30.467 2.00857 
36.0344 28.6412 3.98043 38.1499 30.6488 3.91183 40.1354 28.422 -0.00618845 
[...]
POINT_DATA 4000
FIELD FieldData 6
id 1 4000 int
4 8 43 402 445 441 3 2 12 
47 406 449 7 409 49 16 51 410 
453 11 413 10 20 55 414 457 14 
24 59 63 418 422 461 23 421 19 
28 65 67 426 465 425 27 32 71 
430 469 429 31 69 29 36 75 434 
473 34 38 40 79 438 477 77 401 
437 41 48 83 442 481 485 44 52 
87 446 489 56 91 450 493 60 95 
454 497 64 99 103 458 462 501 68 
107 466 505 66 72 109 111 470 509 
74 76 115 474 513 81 78 80 117 
119 478 517 82 88 123 482 525 84 
521 121 92 127 486 529 129 90 96 
131 490 533 133 100 135 137 494 537 
104 139 143 498 502 541 102 108 147 
506 545 145 110 112 151 510 549 116 
155 514 553 114 120 159 518 557 157 
118 122 128 163 522 565 124 132 167 
526 569 126 130 136 171 173 530 573 
170 140 175 534 577 134 177 144 179 
183 538 542 581 148 187 546 585 150 
152 189 191 550 589 190 156 195 554 
593 154 193 161 561 160 199 558 597 
197 158 168 203 208 562 601 602 605 
204 205 172 207 212 566 606 609 166 
206 209 176 211 216 570 610 613 210 
213 174 180 215 220 574 614 617 217 
184 219 223 224 578 582 618 621 622 
218 222 188 227 228 586 625 626 186 
225 192 230 231 232 590 629 630 229 
194 196 235 236 594 633 634 233 234 
164 200 238 239 240 598 637 638 237 
201 198 243 244 248 642 645 245 242 
247 252 646 649 246 250 251 256 650 
653 253 254 255 260 654 657 257 259 
263 264 658 661 662 258 262 267 268 
665 666 266 265 271 272 669 670 270 
269 275 276 673 674 641 279 280 677 
678 283 284 288 682 685 681 287 292 
686 689 291 296 690 693 290 295 300 
694 697 294 297 299 303 304 698 701 
702 302 307 308 705 706 306 310 311 
312 709 710 309 313 314 315 316 713 
714 319 320 717 718 281 318 323 328 
722 725 322 321 327 332 726 729 329 
331 336 730 733 330 333 335 340 734 
737 339 343 344 738 741 742 338 342 
347 348 745 746 351 352 749 750 350 
355 356 753 754 354 353 324 721 359 
360 757 758 357 358 405 361 363 368 
762 765 362 364 1 367 372 766 769 
369 371 376 770 773 370 417 15 375 
380 774 777 374 379 383 384 778 781 
782 378 387 388 785 786 391 392 789 
790 389 35 433 395 396 793 794 393 
394 39 761 399 400 797 798 37 397 
398 404 408 443 802 845 407 412 447 
806 849 411 416 451 810 813 853 420 
455 814 857 415 424 459 463 818 821 
822 861 428 467 825 826 865 427 432 
471 830 869 436 475 834 873 841 440 
479 837 838 877 439 801 448 483 842 
885 881 452 487 846 889 456 491 850 
893 460 495 854 897 464 499 503 858 
862 901 468 507 866 905 472 511 870 
909 476 515 874 913 444 480 519 878 
917 488 523 882 925 484 921 492 527 
886 929 496 531 890 933 500 535 894 
937 504 539 543 898 902 941 508 547 
906 945 512 551 910 949 516 555 914 
953 520 559 918 957 528 563 922 965 
532 567 926 969 536 571 930 973 540 
575 934 977 544 579 583 938 942 981 
548 587 946 985 552 591 950 989 556 
595 954 993 524 961 560 599 958 997 
568 603 608 962 1005 604 1001 1002 572 
607 612 966 1006 1009 576 611 616 970 
1010 1013 580 615 620 974 1014 1017 584 
619 623 624 978 982 1018 1021 1022 588 
627 628 986 1025 1026 592 631 632 990 
1029 1030 596 635 636 994 1033 1034 564 
600 639 640 998 1037 1038 643 648 1042 
1045 647 652 1046 1049 651 656 1050 1053 
655 660 1054 1057 659 663 664 1058 1061 
1062 667 668 1065 1066 671 672 1069 1070 
675 676 1073 1074 644 1041 679 680 1077 
1078 683 688 1082 1085 1081 687 692 1086 
1089 691 696 1090 1093 695 700 1094 1097 
699 703 704 1098 1101 1102 707 708 1105 
1106 711 712 1109 1110 715 716 1113 1114 
684 719 720 1117 1118 723 728 1122 1125 
727 732 1126 1129 731 736 1130 1133 735 
740 1134 1137 739 743 744 1138 1141 1142 
747 748 1145 1146 751 752 1149 1150 755 
756 1153 1154 724 1121 759 760 1157 1158 
403 805 763 768 1162 1165 809 767 772 
1166 1169 771 776 1170 1173 817 775 780 
1174 1177 419 423 779 783 784 1178 1181 
1182 787 788 1185 1186 829 431 791 792 
1189 1190 435 833 795 796 1193 1194 1161 
764 799 800 1197 1198 808 843 1202 1241 
1245 804 807 812 847 1206 1209 1249 816 
851 1210 1253 811 820 855 1214 1257 824 
859 863 1218 1222 1261 1221 819 827 828 
867 1225 1226 1265 832 871 1230 1269 831 
1229 836 875 1234 1273 840 879 1238 1277 
839 844 848 883 1242 1285 852 887 1246 
1289 856 891 1250 1293 860 895 1254 1297 
864 899 903 1258 1262 1301 868 907 1266 
1305 872 911 1270 1309 876 915 1274 1313 
1281 880 919 1278 1317 888 923 1282 1325 
1321 884 892 927 1286 1329 896 931 1290 
1333 900 935 1294 1337 904 939 943 1298 
1302 1341 908 947 1306 1345 912 951 1310 
1349 916 955 1314 1353 920 959 1318 1357 
928 963 1322 1365 932 967 1326 1369 936 
971 1330 1373 940 975 1334 1377 1338 944 
979 983 1342 1381 948 987 1346 1385 952 
991 1350 1389 956 995 1354 1393 924 1361 
960 999 1358 1397 968 1003 1008 1362 1402 
1405 1401 972 1007 1012 1366 1409 1406 976 
1011 1016 1370 1410 1413 980 1015 1020 1374 
1414 1417 984 1019 1023 1024 1378 1382 1418 
1421 1422 988 1027 1028 1386 1425 1426 992 
1031 1032 1390 1429 1430 996 1035 1036 1394 
1433 1434 1004 964 1000 1039 1040 1398 1437 
1438 1043 1048 1442 1445 1441 1047 1052 1446 
1449 1051 1056 1450 1453 1055 1060 1454 1457 
1059 1063 1064 1458 1461 1462 1067 1068 1465 
1466 1071 1072 1469 1470 1075 1076 1473 1474 
1044 1079 1080 1477 1478 1083 1088 1482 1485 
1087 1092 1486 1489 1091 1096 1490 1493 1095 
1100 1494 1497 1099 1103 1104 1498 1501 1502 
1107 1108 1505 1506 1111 1112 1509 1510 1115 
1116 1513 1514 1481 1084 1119 1120 1517 1518 
1123 1124 1128 1522 1525 1521 1127 1132 1526 
1529 1131 1136 1530 1533 1135 1140 1534 1537 
1139 1143 1144 1538 1541 1542 1147 1148 1545 
1546 1151 1152 1549 1550 1155 1156 1553 1554 
1159 1160 1557 1558 1201 803 1205 1163 1168 
1562 1565 1167 1172 1566 1569 1213 1171 1176 
1570 1573 815 1217 1175 1180 1574 1577 823 
1179 1183 1184 1578 1581 1582 1187 1188 1585 
1586 1191 1192 1589 1590 835 1233 1195 1196 
1593 1594 1237 1561 1164 1199 1200 1597 1598 
1208 1243 1602 1605 1645 1641 1204 1601 1212 
1247 1606 1649 1216 1251 1610 1653 1220 1255 
1614 1657 1215 1224 1259 1263 1618 1622 1661 
1621 1228 1267 1626 1665 1232 1271 1630 1669 
1236 1275 1634 1673 1240 1279 1638 1677 1239 
1637 1640 1244 1248 1283 1642 1685 1681 1252 
1287 1646 1689 1256 1291 1650 1693 1260 1295 
1654 1697 1299 1264 1303 1658 1662 1701 1268 
1307 1666 1705 1272 1311 1670 1709 1276 1315 
1674 1713 1280 1319 1678 1717 1288 1323 1682 
1725 1284 1721 1292 1327 1686 1729 1296 1331 
1690 1733 1300 1335 1694 1737 1304 1339 1343 
1698 1702 1741 1308 1347 1706 1745 1312 1351 
1710 1749 1316 1355 1714 1753 1320 1359 1718 
1757 1328 1363 1722 1765 1332 1367 1726 1769 
1336 1371 1730 1773 1340 1375 1734 1777 1738 
1344 1379 1383 1742 1781 1348 1387 1746 1785 
1352 1391 1750 1789 1356 1395 1754 1793 1761 
1324 1360 1399 1758 1797 1368 1403 1404 1408 
1762 1802 1805 1372 1407 1412 1766 1806 1809 
1376 1411 1416 1770 1810 1813 1380 1415 1420 
1774 1814 1817 1384 1419 1423 1424 1778 1782 
1818 1821 1822 1388 1427 1428 1786 1825 1826 
1392 1431 1432 1790 1829 1830 1396 1435 1436 
1794 1833 1834 1364 1801 1400 1439 1440 1798 
1837 1838 1443 1448 1842 1845 1444 1447 1452 
1846 1849 1451 1456 1850 1853 1455 1460 1854 
1857 1459 1463 1464 1858 1861 1862 1467 1468 
1865 1866 1471 1472 1869 1870 1475 1476 1873 
1874 1841 1479 1480 1877 1878 1483 1484 1488 
1882 1885 1487 1492 1886 1889 1491 1496 1890 
1893 1495 1500 1894 1897 1499 1503 1504 1898 
1901 1902 1507 1508 1905 1906 1511 1512 1909 
1910 1515 1516 1913 1914 1881 1519 1520 1917 
1918 1523 1528 1922 1925 1527 1532 1926 1929 
1932 1531 1536 1930 1933 1535 1540 1934 1937 
1940 1539 1543 1544 1938 1941 1942 1939 1547 
1548 1945 1946 1551 1552 1949 1950 1555 1556 
1953 1954 1921 1524 1559 1560 1957 1958 1203 
1563 1564 1568 1962 1965 1609 1207 1567 1572 
1966 1969 1211 1613 1571 1576 1970 1973 1617 
1575 1580 1974 1977 1219 1223 1579 1584 1978 
1981 1982 1625 1583 1227 1587 1588 1985 1986 
1231 1629 1591 1592 1989 1990 1235 1633 1595 
1596 1993 1994 1961 1599 1600 1997 1998 1608 
1643 2001 2002 2004 2008 2043 2045 2041 1604 
2005 1612 1647 2006 2012 2047 2049 1616 1651 
2010 2016 2051 2053 1611 1620 1655 2014 2020 
2055 2057 1624 1659 1663 2018 2022 2023 2024 
2059 2061 2063 2021 1623 1619 1628 1667 2025 
2026 2028 2065 2067 1632 1671 2030 2032 2069 
2071 1636 1675 2034 2036 2073 2075 1679 2037 
2038 2039 2040 2077 2079 1639 1648 1683 2042 
2048 2081 2083 2085 2044 1644 1652 1687 2046 
2052 2087 2089 1656 1691 2050 2056 2091 2093 
1660 1695 2054 2060 2095 2097 1699 2058 1664 
1703 2062 2064 2099 2101 2103 1668 1707 2066 
2068 2105 2107 1672 1711 2070 2072 2109 2111 
1676 1715 2074 2076 2113 2115 1680 1719 2078 
2080 2117 2119 1688 1723 2082 2084 2088 2123 
2125 1692 1727 2086 2092 2127 2129 1696 1731 
2090 2096 2131 2133 1700 1735 2094 2100 2135 
2137 1704 1739 1743 2098 2102 2104 2139 2141 
2143 1708 1747 2106 2108 2145 2147 1712 1751 
2110 2112 2149 2151 1716 1755 2114 2116 2153 
2155 2121 1684 1720 1759 2118 2120 2157 2159 
1728 1763 2122 2128 2163 2165 2161 2124 1732 
1767 2126 2132 2167 2169 1736 1771 2130 2136 
2171 2173 1740 1775 2134 2140 2175 2177 1783 
1744 1779 2138 2142 2144 2181 2183 2179 1748 
1787 2146 2148 2185 2187 1752 1791 2150 2152 
2189 2191 1756 1795 2154 2156 2193 2195 1724 
1760 1799 2158 2160 2197 2199 1764 1768 1803 
1808 2162 2168 2202 2203 2205 2208 2204 2201 
1772 1807 1812 2166 2172 2206 2209 2212 2207 
1776 1811 1816 2170 2176 2210 2211 2213 2216 
1780 1815 1820 2174 2180 2214 2215 2217 2220 
1784 1819 1823 1824 2178 2182 2184 2218 2219 
2221 2223 2224 2222 1788 1827 1828 2186 2188 
2225 2226 2227 2228 1792 1831 1832 2190 2192 
2229 2230 2231 2232 1796 1835 1836 2194 2196 
2233 2234 2235 1804 2164 1800 1839 1840 2198 
2200 2237 2238 2239 2240 1843 1848 2242 2243 
2245 2248 2241 1847 1852 2246 2247 2249 2252 
1851 1856 2250 2251 2253 2256 1855 1860 2254 
2255 2257 2260 1859 1863 1864 2258 2259 2261 
2262 2264 1867 1868 2265 2266 2267 2268 1871 
1872 2269 2270 2271 2272 2236 1875 1876 2273 
2274 2275 2276 2244 1844 1879 1880 2277 2278 
2279 2280 1883 1888 2282 2283 2285 2288 2281 
1887 1892 2286 2287 2289 2292 1891 1896 2290 
2293 2291 2296 1895 1900 2294 2295 2297 2300 
1899 1903 1904 2298 2299 2301 2302 2303 2304 
1907 1908 2305 2306 2308 2307 1911 1912 2309 
2310 2311 2312 1915 1916 2313 2314 2315 2316 
1884 2284 1919 1920 2317 2318 2319 2320 1923 
1928 2322 2323 2325 2328 1924 1927 2326 2327 
2329 2332 1931 1936 2330 2331 2333 2336 1935 
2334 2335 2337 2340 1943 1944 2338 2339 2341 
2342 2343 2344 1947 1948 2345 2346 2347 2348 
1951 1952 2349 2350 2351 2352 1955 1956 2353 
2354 2356 2355 2321 2324 1959 1960 2357 2358 
2359 2360 1603 2003 1963 1964 1968 2362 2363 
2365 2368 2361 2009 1607 1967 1972 2366 2367 
2369 2372 2011 2013 1971 1976 2370 2371 2373 
2376 1615 2015 2017 1975 1980 2374 2375 2377 
2380 2019 1979 1983 1984 2378 2379 2381 2382 
2383 2384 2027 1627 1987 1988 2385 2386 2387 
2388 2029 2031 1631 1991 1992 2389 2390 2391 
2392 1635 2033 2035 1995 1996 2393 2394 2395 
2364 1999 2000 2397 2398 2399 2400 2402 2408 
2443 2445 2441 2405 2406 2412 2447 2449 2409 
2410 2416 2451 2453 2411 2414 2415 2420 2455 
2457 2418 2422 2423 2424 2459 2461 2463 2419 
2426 2428 2465 2467 2427 2430 2432 2469 2471 
2434 2436 2473 2475 2433 2404 2438 2440 2477 
2479 2439 2442 2448 2483 2485 2444 2481 2446 
2452 2487 2489 2450 2456 2491 2493 2454 2460 
2495 2497 2458 2462 2464 2499 2501 2503 2466 
2468 2505 2507 2470 2472 2509 2511 2474 2476 
2513 2515 2478 2480 2517 2519 2482 2488 2523 
2525 2521 2486 2492 2527 2529 2490 2496 2531 
2533 2494 2500 2535 2537 2498 2502 2504 2539 
2541 2543 2506 2508 2545 2547 2510 2512 2549 
2551 2514 2516 2553 2555 2484 2518 2520 2557 
2559 2522 2528 2563 2565 2561 2526 2532 2567 
2569 2530 2536 2571 2573 2534 2540 2575 2577 
2538 2542 2544 2579 2581 2583 2546 2548 2585 
2587 2550 2552 2589 2591 2554 2556 2593 2595 
2524 2558 2560 2597 2599 2562 2568 2602 2603 
2605 2608 2601 2604 2566 2572 2606 2607 2609 
2612 2570 2576 2610 2611 2613 2616 2574 2580 
2614 2615 2617 2620 2578 2582 2584 2618 2619 
2621 2622 2623 2624 2586 2588 2625 2626 2627 
2628 2590 2592 2629 2630 2631 2632 2594 2596 
2633 2634 2635 2636 2564 2598 2600 2637 2638 
2639 2640 2642 2643 2645 2648 2646 2647 2649 
2652 2650 2651 2653 2656 2654 2655 2657 2660 
2263 2658 2659 2661 2662 2663 2664 2665 2666 
2667 2668 2669 2670 2671 2672 2673 2674 2675 
2676 2641 2644 2677 2678 2679 2680 2682 2683 
2685 2688 2684 2686 2687 2689 2692 2690 2691 
2693 2696 2694 2695 2697 2700 2698 2699 2701 
2702 2703 2704 2705 2706 2707 2708 2709 2710 
2711 2712 2713 2714 2715 2716 2681 2717 2718 
2719 2720 2722 2723 2725 2728 2724 2726 2727 
2729 2732 2730 2731 2733 2736 2734 2735 2737 
2740 2738 2739 2741 2742 2743 2744 2745 2746 
2747 2748 2749 2750 2751 2752 2753 2754 2755 
2756 2721 2757 2758 2759 2760 2403 2762 2763 
2765 2768 2007 2407 2766 2767 2769 2772 2413 
2770 2771 2773 2776 2417 2774 2775 2777 2780 
2421 2778 2779 2781 2782 2783 2784 2425 2785 
2786 2787 2788 2429 2431 2789 2790 2791 2792 
2396 2435 2793 2794 2795 2796 2437 2401 2761 
2764 2797 2798 2799 2800 2802 2808 2841 2843 
2845 2803 2806 2812 2847 2849 2810 2816 2851 
2853 2814 2820 2855 2857 2818 2822 2823 2824 
2859 2861 2863 2819 2825 2826 2827 2828 2865 
2867 2830 2831 2832 2869 2871 2834 2836 2873 
2875 2833 2835 2804 2838 2840 2877 2879 2839 
2842 2848 2883 2885 2846 2852 2887 2889 2850 
2856 2891 2893 2854 2860 2895 2897 2858 2862 
2864 2899 2901 2903 2866 2868 2905 2907 2870 
2872 2909 2911 2874 2876 2913 2915 2844 2881 
2878 2880 2917 2919 2882 2888 2921 2923 2925 
2886 2892 2927 2929 2890 2896 2931 2933 2894 
2900 2935 2937 2898 2902 2904 2939 2941 2943 
2906 2908 2945 2947 2910 2912 2949 2951 2914 
2916 2953 2955 2884 2918 2920 2957 2959 2922 
2928 2963 2965 2961 2924 2926 2932 2967 2969 
2930 2936 2971 2973 2934 2940 2975 2977 2938 
2942 2944 2979 2981 2983 2946 2948 2985 2987 
2950 2952 2989 2991 2954 2956 2993 2995 2958 
2960 2997 2999 2962 2968 3002 3003 3005 3008 
2964 3004 2966 2972 3006 3007 3009 3012 2970 
2976 3010 3011 3013 3016 2974 2980 3015 3017 
3020 2978 2982 2984 3018 3019 3021 3022 3023 
3024 2986 2988 3025 3027 3028 2990 2992 3029 
3030 3031 3032 2994 2996 3033 3034 3035 3036 
3001 2998 3000 3037 3038 3039 3040 3042 3043 
3045 3048 3041 3046 3047 3049 3052 3050 3051 
3053 3056 3014 3054 3055 3057 3060 3058 3059 
3061 3062 3063 3064 3026 3065 3066 3067 3068 
3069 3070 3071 3072 3073 3074 3075 3076 3044 
3077 3078 3079 3080 3082 3083 3085 3088 3084 
3086 3087 3089 3092 3090 3091 3093 3096 3094 
3095 3097 3100 3098 3099 3101 3102 3103 3104 
3105 3106 3107 3108 3109 3110 3111 3112 3113 
3114 3115 3116 3081 3117 3118 3119 3120 3122 
3123 3125 3128 3124 3121 3126 3127 3129 3132 
3130 3131 3133 3136 3134 3135 3137 3140 3138 
3139 3141 3142 3143 3144 3145 3146 3147 3148 
3149 3150 3151 3152 3153 3154 3155 3156 3157 
3158 3159 3160 2805 3162 3163 3165 3168 3161 
2807 2809 3166 3167 3169 3172 2811 2813 3170 
3171 3173 3176 2817 2815 3174 3175 3177 3180 
2821 3178 3179 3181 3182 3183 3184 3185 3186 
3187 3188 2829 3189 3190 3191 3192 3193 3194 
3195 3196 3164 2801 2837 3197 3198 3199 3200 
3202 3205 3208 3243 3245 3204 3241 3203 3206 
3212 3247 3249 3210 3211 3216 3251 3253 3214 
3220 3255 3257 3215 3217 3218 3222 3223 3224 
3259 3261 3263 3219 3221 3225 3226 3227 3228 
3265 3267 3230 3232 3269 3271 3231 3229 3234 
3236 3273 3275 3233 3235 3237 3238 3240 3277 
3279 3201 3242 3248 3283 3285 3244 3246 3252 
3287 3289 3250 3256 3291 3293 3254 3260 3295 
3297 3258 3262 3264 3299 3301 3303 3266 3268 
3305 3307 3270 3272 3309 3311 3274 3276 3313 
3315 3281 3278 3280 3317 3319 3282 3288 3323 
3325 3284 3321 3286 3292 3327 3329 3290 3296 
3331 3333 3294 3300 3335 3337 3298 3302 3304 
3339 3341 3343 3306 3308 3345 3347 3310 3312 
3349 3351 3314 3316 3353 3355 3318 3320 3357 
3359 3322 3328 3363 3365 3324 3361 3326 3332 
3367 3369 3330 3336 3371 3373 3334 3340 3375 
3377 3338 3342 3344 3379 3381 3383 3346 3348 
3385 3387 3350 3352 3389 3391 3354 3356 3393 
3395 3358 3360 3397 3399 3362 3368 3402 3403 
3405 3408 3401 3366 3372 3406 3407 3409 3412 
3370 3376 3410 3411 3413 3416 3374 3380 3414 
3415 3417 3420 3378 3382 3384 3418 3419 3421 
3422 3423 3424 3386 3388 3425 3426 3427 3428 
3390 3392 3429 3430 3431 3432 3394 3396 3433 
3434 3435 3436 3364 3404 3398 3400 3437 3438 
3439 3440 3442 3443 3445 3448 3441 3444 3446 
3447 3449 3452 3450 3451 3453 3456 3454 3455 
3457 3460 3458 3459 3461 3462 3463 3464 3465 
3466 3467 3468 3469 3470 3471 3472 3473 3474 
3475 3476 3477 3478 3479 3480 3482 3483 3485 
3488 3481 3484 3486 3487 3489 3492 3490 3491 
3493 3496 3494 3495 3497 3500 3498 3499 3501 
3502 3503 3504 3505 3506 3507 3508 3509 3510 
3511 3512 3513 3514 3515 3516 3517 3518 3519 
3520 3522 3523 3525 3528 3521 3526 3527 3529 
3532 3530 3531 3533 3536 3534 3535 3537 3540 
3538 3539 3541 3542 3543 3544 3545 3546 3547 
3548 3549 3550 3551 3552 3553 3554 3555 3556 
3524 3557 3558 3559 3560 3562 3563 3565 3568 
3564 3209 3207 3566 3567 3569 3572 3213 3570 
3571 3573 3576 3574 3575 3577 3580 3578 3579 
3581 3582 3583 3584 3585 3586 3587 3588 3589 
3590 3591 3592 3593 3594 3595 3596 3239 3561 
3597 3598 3599 3600 45 3602 3608 3643 3645 
3601 9 6 3606 3612 3647 3649 53 3610 
3616 3651 3653 13 3613 3611 57 3614 3615 
3620 3655 3657 3617 22 61 18 3618 3622 
3624 3659 3661 3663 3619 26 3625 3626 3627 
3628 3665 3667 30 3630 3632 3669 3671 3631 
73 3634 3636 3673 3675 3633 3641 3604 3638 
3640 3677 3679 85 42 3642 3648 3683 3685 
46 89 3646 3652 3687 3689 93 50 3650 
3656 3691 3693 54 97 3654 3660 3695 3697 
58 62 101 3658 3662 3664 3699 3701 3703 
105 3666 3668 3705 3707 70 3670 3672 3709 
3711 113 3674 3676 3713 3715 3644 3681 3678 
3680 3717 3719 125 3682 3688 3723 3725 3721 
86 3686 3692 3727 3729 3690 3696 3731 3733 
94 3694 3700 3735 3737 98 141 3698 3702 
3704 3739 3741 3743 106 3706 3708 3745 3747 
149 3710 3712 3749 3751 153 3714 3716 3753 
3755 3684 3718 3720 3757 3759 165 3722 3728 
3763 3765 3761 169 3726 3732 3767 3769 3730 
3736 3771 3773 3734 3740 3775 3777 138 142 
181 3738 3742 3744 3779 3781 3783 185 146 
3746 3748 3785 3787 3750 3752 3789 3791 3754 
3756 3793 3795 3724 3758 3760 3797 3799 202 
162 3762 3768 3802 3803 3805 3808 3772 3766 
3806 3807 3809 3812 3770 3776 3810 3811 3813 
3816 214 3774 3780 3815 3817 3820 3814 221 
178 182 3778 3782 3784 3818 3819 3821 3822 
3823 3824 226 3786 3788 3825 3826 3827 3828 
3790 3792 3829 3830 3831 3832 3794 3796 3833 
3834 3835 3836 3804 3764 3801 3798 3800 3837 
3838 3839 3840 241 3842 3843 3845 3848 3844 
249 3846 3847 3849 3852 3850 3851 3853 3856 
3854 3855 3857 3860 3859 261 3858 3861 3862 
3863 3864 3865 3866 3867 3868 3869 3870 3871 
3872 273 274 3873 3874 3875 3876 277 278 
3841 3877 3878 3879 3880 285 282 3881 3882 
3883 3885 3888 289 286 3886 3887 3889 3892 
293 3890 3891 3893 3896 3894 3895 3897 3900 
298 301 3898 3899 3901 3902 3903 3904 305 
3905 3906 3907 3908 3909 3910 3911 3912 3913 
3914 3915 3916 317 3884 3917 3918 3919 3920 
325 3922 3923 3925 3928 326 3926 3927 3929 
3932 3930 3931 3933 3936 334 337 3934 3935 
3937 3940 341 3938 3939 3941 3942 3943 3944 
345 346 3945 3946 3947 3948 349 3949 3950 
3951 3952 3953 3954 3955 3956 3924 3921 3957 
3958 3959 3960 365 5 3603 3605 3962 3963 
3965 3968 3609 366 3607 3966 3967 3969 3972 
373 3970 3971 3973 3976 17 377 3974 3975 
3977 3980 381 382 21 3623 3621 3978 3979 
3981 3982 3983 3984 25 385 386 3985 3986 
3987 3988 3629 390 3989 3990 3991 3992 33 
3635 3993 3994 3995 3996 3639 3961 3964 3637 
3997 3998 3999 4000 
type 1 4000 int
1 1 1 1 1 1 1 1 1 
1 1 1 1 1 1 1 1 1 
1 1 1 1 1 1 1 1 1 
1 1 1 1 1 1 1 1 1 
1 1 1 1 1 1 1 1 1 
1 1 1 1 1 1 1 1 1 
1 1 1 1 1 1 1 1 1 
1 1 1 1 1 1 1 1 1 
1 1 1 1 1 1 1 1 1 
1 1 1 1 1 1 1 1 1 
1 1 1 1 1 1 1 1 1 
1 1 1 1 1 1 1 1 1 
1 1 1 1 1 1 1 1 1 
1 1 1 1 1 1 1 1 1 
1 1 1 1 1 1 1 1 1 
1 1 1 1 1 1 1 1 1 
1 1 1 1 1 1 1 1 1 
1 1 1 1 1 1 1 1 1 
1 1 1 1 1 1 1 1 1 
1 1 1 1 1 1 1 1 1 
1 1 1 1 1 1 1 1 1 
1 1 1 1 1 1 1 1 1 
1 1 1 1 1 1 1 1 1 
1 1 1 1 1 1 1 1 1 
1 1 1 1 1 1 1 1 1 
1 1 1 1 1 1 1 1 1 
1 1 1 1 1 1 1 1 1 
1 1 1 1 1 1 1 1 1 
1 1 1 1 1 1 1 1 1 
1 1 1 1 1 1 1 1 1 
1 1 1 1 1 1 1 1 1 