# vtk DataFile Version 4.0
Generated by LAMMPS
ASCII
DATASET POLYDATA
POINTS 4000 float
4.6677 -0.497793 3.70817 6.5343 -0.835757 1.63015 4.08359 -2.44186 1.49358 
6.59177 1.09762 -0.703659 4.50722 -0.688246 40.8865 8.66803 1.00924 1.58756 
10.4698 -1.42913 1.5173 10.56 0.557615 -0.36908 8.376 -1.21803 40.9433 
12.8615 0.458696 1.63793 14.4849 -1.97883 1.66203 12.4708 -1.67425 3.63928 
14.7677 0.0721822 -0.503027 16.4625 -0.0993584 1.5995 18.2912 -2.50634 1.35242 
18.5104 -0.28506 3.20251 20.2848 43.4319 41.0963 16.5319 -2.21749 -0.464434 
20.7122 -0.754057 1.38057 24.7875 -1.32454 1.56108 22.5399 43.084 1.57231 
22.9614 1.17605 1.39748 20.8475 1.36584 -0.494218 28.7807 -1.82953 1.41107 
27.1424 0.379433 1.51919 29.1069 0.0453606 3.49616 26.6281 -1.656 3.4949 
26.8108 -1.48058 41.0762 29.072 0.223667 41.2028 30.9989 -0.10478 1.37732 
32.8179 -2.46465 1.25429 32.8347 -0.137406 3.27464 30.7929 -2.01424 3.47864 
37.7303 -0.0665678 1.39531 34.9808 -0.45221 1.05793 34.6102 -2.46977 3.42914 
4.93141 1.47352 1.48476 3.01687 3.95602 1.55689 5.02828 3.49496 -0.491099 
7.20467 3.24873 1.6035 7.20869 5.09851 -0.493428 4.93914 3.47865 3.61085 
7.13607 5.28987 3.58508 9.17173 4.94755 1.39133 10.8873 2.6877 1.45306 
11.0432 4.70267 3.5259 8.95898 3.09953 3.59551 8.89158 2.88426 -0.546054 
14.8985 2.20809 1.67711 12.9478 4.56805 1.16827 12.771 2.37585 3.57411 
14.9801 4.18201 3.42194 12.9668 2.396 -0.353202 18.8022 1.61156 1.47664 
17.4301 4.05746 1.72844 16.9157 1.96215 3.59602 16.9603 1.68444 -0.518724 
19.19 3.63574 41.0211 21.0815 3.50718 1.47932 23.5653 4.86845 1.47303 
21.3586 5.28235 41.0744 23.2348 3.04946 -0.379242 25.3802 2.56292 1.51094 
25.4973 4.82525 3.32913 27.5522 4.48861 1.33355 27.2486 2.32115 3.34634 
25.5635 4.83067 -0.53967 33.2931 1.77886 0.911411 30.9473 2.22373 3.4598 
29.3589 2.40641 1.57066 29.2781 4.54648 3.56595 31.4655 4.15937 1.25809 
2.77966 1.70435 3.70176 35.9261 2.29892 1.73656 34.2071 4.43252 1.67619 
2.82574 1.63388 -0.49099 36.1501 4.10203 -0.443366 5.25957 5.64613 1.47388 
3.19036 5.80808 41.1657 3.48209 7.82162 1.61444 5.75068 9.37534 1.35606 
5.49486 7.52676 3.52477 7.66898 7.37147 1.40268 11.3067 6.89282 1.3298 
9.74945 9.08419 1.36108 7.55245 9.15555 -0.764441 9.45187 7.03859 3.42387 
7.61317 9.34988 3.57113 15.5692 6.2752 1.33856 13.6115 8.37715 1.33742 
13.4298 6.64632 40.8794 19.2611 6.03339 1.60766 17.451 8.07313 1.32033 
19.796 9.67139 1.44101 21.7064 7.28166 1.3917 23.8719 8.81457 1.44044 
23.8456 7.08204 3.47525 21.8896 9.37622 3.47496 21.8662 9.25546 41.0752 
25.7625 6.88417 1.42769 27.6399 6.89385 3.70032 28.0288 8.42045 1.11327 
25.8968 9.0871 3.46501 32.3082 6.74984 1.55547 29.6189 6.14393 1.02297 
30.5636 8.94678 1.54553 32.5303 8.71464 -0.345717 36.4871 6.01889 1.93877 
36.7722 7.86731 -0.412038 34.6228 8.47087 1.59657 34.4815 6.31266 -0.587257 
3.92095 11.8286 1.43624 6.14306 13.7674 1.74361 4.21667 13.8645 -0.608728 
3.6954 9.89146 3.40963 4.06181 14.0338 3.59763 5.75242 11.6022 3.57208 
9.79952 11.0987 -0.49302 7.69179 11.3217 1.51075 10.0066 13.1648 1.54209 
9.79122 11.0796 3.37205 8.03042 13.3971 3.53496 15.8654 10.1159 1.59651 
13.9254 10.491 -0.517684 11.8839 10.7756 1.35463 13.9268 12.6846 1.4986 
13.8682 10.4413 3.369 18.1032 12.1052 1.5183 20.1443 11.7281 3.58447 
18.4092 14.0392 3.51759 20.2236 13.8722 1.24086 22.1366 11.1902 1.22924 
24.0984 11.2419 3.37164 24.3471 13.0942 0.973009 22.1856 13.4812 3.30732 
26.1143 10.6556 1.11055 28.8636 11.3459 1.55958 26.9663 13.5417 1.50495 
29.0967 13.4525 -0.493353 29.0775 13.4194 3.57896 32.8182 10.9851 1.58582 
30.8072 11.1048 -0.495061 31.0081 12.9612 1.46186 33.1765 12.8397 -0.381829 
36.8867 10.1818 1.34075 35.0106 12.6047 1.73623 37.1668 12.2298 41.0166 
4.33635 15.9709 1.65587 6.21336 15.7083 -0.472729 6.55646 17.6706 1.58717 
4.54576 17.9824 -0.57626 8.24551 15.5815 1.50583 10.5185 17.3691 1.56171 
10.1969 15.3182 3.42107 8.49426 17.4845 3.63818 12.2557 14.8807 1.45624 
14.4244 16.6811 1.59919 14.2584 14.6664 3.54374 12.4033 16.9197 3.64888 
16.2048 14.417 1.53049 18.5177 16.1121 1.33623 16.6472 18.1743 1.26755 
18.6882 18.2164 3.41402 22.4781 15.4374 1.05628 20.4866 15.8105 3.4745 
20.6202 17.7819 1.01302 23.3951 18.0985 1.57861 27.2226 15.536 -0.54908 
25.4088 15.8849 1.5819 27.6224 17.6166 1.6004 25.5486 18.015 -0.416309 
29.208 15.2877 1.67927 31.3564 15.0828 -0.351605 33.3279 14.9301 1.72193 
31.4502 17.0822 1.56689 29.6353 17.4014 41.2694 29.6159 17.3816 3.49315 
37.3273 14.2352 1.49576 35.3784 14.4114 -0.469471 33.3461 16.931 -0.299669 
35.5053 16.5982 1.59077 37.6106 16.257 3.51121 6.77821 19.8895 -0.459565 
4.79918 19.7453 1.54932 6.95037 21.8174 1.65122 3.05023 22.0866 1.57644 
2.76393 20.1772 -0.488478 6.61325 19.8144 3.70287 8.71028 19.6019 1.61919 
11.0062 21.3331 1.56097 10.8328 19.2854 3.58281 9.07497 21.6046 3.49165 
12.8229 18.9437 1.60243 15.0271 20.4792 1.40533 14.6849 18.5931 3.72368 
12.9717 21.127 3.55609 14.6929 18.5489 41.0267 18.8485 20.2449 1.00136 
16.9341 20.2296 3.25539 21.4504 18.3758 3.59088 23.6948 20.0562 -0.628602 
21.763 20.4763 1.50986 23.9728 22.1641 1.74159 23.7367 20.0788 3.6239 
25.6964 19.9177 1.77878 27.736 19.7222 -0.286997 27.8538 21.4714 1.68536 
25.8246 21.921 -0.343596 29.8122 19.4454 1.49405 31.6662 19.2026 41.0811 
31.8557 21.1009 1.61819 29.9814 21.3842 -0.357864 37.617 18.3312 1.58246 
33.8302 18.8389 1.6518 35.497 18.6114 -0.471339 36.0239 20.4679 1.46923 
34.0182 20.9089 -0.479764 35.6805 18.4337 3.60366 5.10418 24.0822 1.41639 
3.26997 24.2993 -0.484731 3.61145 26.3252 1.48014 5.51984 26.2564 3.44289 
9.21219 23.6455 1.48917 11.5254 25.1436 1.17862 7.31283 25.7686 1.40389 
7.18868 23.9732 3.50264 11.208 23.4007 3.62132 9.53725 25.7566 3.48959 
13.1877 22.7384 1.35118 15.3119 24.9429 1.2939 15.1987 22.7534 3.2253 
13.3806 24.9832 3.28927 17.0039 22.3767 0.963154 18.1672 25.1958 1.66858 
19.9715 22.8506 1.49573 20.1241 24.7491 -0.498236 22.1492 24.5066 1.51441 
24.0761 24.1808 -0.346615 21.9378 22.3881 -0.37092 22.4781 26.4558 -0.320265 
26.1655 23.8732 1.66637 28.202 23.5071 -0.378837 24.4967 26.118 1.63999 
28.4139 25.6204 1.53141 26.4393 25.8026 -0.411573 30.1724 23.4849 1.64683 
32.3117 23.1268 41.1199 32.3023 25.1147 1.40846 30.5857 25.2512 -0.714476 
34.167 22.8963 1.67352 36.2463 22.4709 41.1126 34.3943 24.8178 41.049 
36.6099 24.3462 1.41439 36.7753 26.5208 -0.569985 5.54164 28.1518 1.3553 
3.91499 30.4968 1.56874 3.64397 28.5797 3.29056 5.87989 30.2898 3.49646 
9.64845 27.3897 1.32311 7.80828 29.6722 1.2363 10.0971 29.6923 3.38495 
7.56029 28.0278 3.50657 13.4866 27.0842 0.939156 11.6791 29.2748 1.09536 
14.7808 29.4565 1.54051 11.8277 27.3751 3.12653 16.5769 27.444 1.69832 
16.7279 29.5257 -0.456526 18.801 29.005 1.72469 18.3682 26.8994 -0.450723 
20.4722 26.8567 1.74919 22.6458 28.4596 1.69738 20.6175 28.6311 -0.272581 
22.9797 30.4746 41.1765 24.8281 28.0889 -0.60019 26.6417 27.9322 1.46165 
28.6442 27.6361 -0.451475 24.8331 30.0939 1.49982 27.0424 29.8942 -0.550208 
30.6343 27.381 1.31822 32.6471 26.9044 41.0084 28.7104 29.5699 1.60178 
32.99 29.0969 1.45693 30.8962 29.4725 -0.455946 34.7382 26.7696 1.40635 
36.9967 28.4815 1.46279 36.6858 26.7072 3.42358 6.11753 32.2156 1.35075 
6.26329 34.3295 3.56706 4.40186 34.6019 1.35018 3.99683 32.638 3.69854 
9.82642 31.4776 1.05997 8.15121 33.9165 1.19549 7.92719 32.0675 3.61235 
10.915 34.1655 1.66668 11.2213 32.2292 3.62075 12.853 31.9256 1.51532 
14.9471 31.5963 -0.327476 15.336 33.5088 1.66784 13.1559 33.8389 -0.356389 
13.2882 33.7679 3.56013 16.9655 31.2759 1.69155 19.3049 33.0816 1.50775 
18.9512 30.9238 -0.437308 17.2393 33.3778 3.69164 17.2866 33.1571 -0.357673 
20.9834 30.7989 1.67404 23.1402 32.284 1.49953 21.1815 32.7122 41.1499 
21.263 32.9094 3.68377 23.3703 34.4965 -0.349583 27.3479 32.074 1.33533 
25.41 32.2248 -0.532056 25.5275 34.236 1.3721 27.6136 33.9788 -0.60053 
29.2539 31.6949 -0.573578 29.6656 33.5504 1.5522 31.2653 31.234 1.38054 
33.5952 33.0549 1.41292 31.4614 33.3587 41.0105 33.3247 31.101 40.947 
35.1662 30.9879 1.54021 37.4287 32.7941 1.4388 6.56432 36.1647 1.17041 
4.82625 38.6131 1.19818 4.66874 36.764 3.59788 2.80587 38.8862 3.80864 
9.38077 36.4932 1.52282 7.45933 38.9794 1.57021 9.76872 38.6378 3.39479 
9.56682 38.4917 -0.391553 11.718 38.2135 1.49463 11.5096 36.2778 -0.210951 
13.5464 35.8779 1.64881 15.9834 37.5864 1.50555 15.6777 35.5202 -0.475694 
13.9214 37.8627 -0.424592 17.6699 35.4081 1.69601 19.8558 37.1177 1.66932 
17.8165 37.4708 3.65489 19.5346 35.1232 3.71333 17.8866 37.3556 -0.446634 
19.533 34.9368 -0.597316 21.477 34.8178 1.63575 23.7799 36.5213 1.49842 
21.93 38.9991 1.30763 21.702 36.7736 -0.371556 23.8907 38.644 40.9996 
27.7412 36.11 1.19941 28.1626 38.1227 -0.638091 26.0583 38.3822 1.44922 
25.6903 36.2129 40.8933 31.9239 35.1268 1.39957 29.9153 37.5978 1.52254 
29.8488 35.6637 -0.420455 31.9856 37.3273 -0.524877 2.85102 36.8382 1.30608 
33.6145 35.1609 41.0715 33.8373 37.2684 1.39569 35.6206 35.2035 1.35067 
36.2663 38.7644 1.39132 5.78599 41.4374 1.54304 2.78874 40.8474 1.21481 
6.30835 43.1253 3.59189 5.95209 43.1383 41.045 9.87683 40.6188 1.63594 
8.22691 42.9623 1.38018 7.98769 40.919 3.53205 7.95135 40.8074 -0.28698 
10.4754 42.5834 -0.576605 14.0121 40.0673 1.65393 11.9744 40.2404 3.55784 
12.3393 42.1946 1.54233 14.2393 42.1029 3.44107 14.1263 41.9255 -0.50852 
12.084 40.2688 -0.294659 18.2026 39.5124 1.46742 16.2656 41.7645 1.42329 
20.3669 41.4245 1.368 18.3634 41.6231 3.26955 16.1546 39.6409 -0.26005 
18.2571 41.4191 41.1929 20.0442 39.1099 41.122 24.2008 40.6278 1.46728 
24.5973 42.728 -0.636422 22.3629 40.9952 -0.48091 26.5375 42.5054 1.28265 
28.1902 40.1727 1.39319 26.2188 40.2626 -0.610888 28.487 42.054 -0.506852 
30.4011 41.9194 1.60009 32.1672 39.6453 1.64724 30.2408 39.7049 -0.46904 
34.3396 39.2055 3.5585 36.2408 -2.76099 0.945 34.5832 41.28 1.30376 
36.3289 41.2699 3.35595 6.83157 1.35765 3.66676 6.74727 1.40016 7.85188 
6.49122 -0.580532 5.58831 4.20406 -2.34916 5.70051 37.7838 -0.0667143 5.69675 
[...]
POINT_DATA 4000
FIELD FieldData 6
id 1 4000 int
405 7 3 6 2 12 11 10 9 
16 15 413 14 20 19 418 21 17 
24 28 23 63 61 32 67 469 426 
26 30 36 35 434 430 4 40 437 
8 43 45 47 46 445 446 52 51 
450 449 49 55 56 453 454 53 59 
60 457 57 58 64 103 101 62 68 
505 72 466 66 75 473 71 470 76 
402 79 80 41 78 48 42 83 88 
485 87 91 92 86 489 486 95 96 
93 99 100 139 104 108 502 541 102 
107 509 112 506 115 111 116 114 44 
81 119 117 123 128 122 482 522 525 
129 127 132 529 526 135 133 131 136 
533 140 538 577 144 143 545 148 542 
147 151 152 150 553 120 153 155 157 
84 159 121 163 165 168 162 167 172 
569 566 171 176 573 570 175 179 180 
578 183 581 184 188 189 187 191 186 
156 154 160 195 193 593 124 158 197 
199 561 205 203 208 204 201 605 207 
212 609 606 211 215 613 610 174 219 
617 582 225 223 227 586 192 190 231 
229 196 194 235 233 164 200 198 239 
237 598 243 241 244 642 247 251 248 
645 649 646 216 255 614 653 220 259 
224 261 228 226 222 265 232 230 267 
271 269 236 234 275 273 240 238 277 
279 278 283 284 681 682 252 287 689 
685 256 291 295 650 260 297 264 258 
263 268 262 305 266 272 270 307 309 
276 274 311 315 313 280 319 678 288 
725 323 721 292 327 686 331 690 296 
294 300 333 694 299 304 301 698 298 
303 308 302 702 345 312 306 347 349 
310 351 316 355 353 314 320 359 328 
363 722 761 332 367 730 369 336 330 
335 340 337 334 339 344 738 741 338 
341 343 348 383 342 385 352 389 387 
346 356 391 350 393 324 354 395 360 
399 368 364 766 5 371 372 769 366 
370 375 773 376 774 374 373 379 380 
384 778 377 378 381 388 25 382 27 
392 386 29 31 396 390 794 39 400 
798 406 806 407 768 403 409 410 412 
411 810 414 416 415 814 813 417 420 
419 817 818 421 461 422 424 463 822 
465 428 432 467 869 471 436 401 440 
438 439 408 443 448 447 845 846 451 
849 452 455 456 853 458 459 460 499 
462 501 901 464 503 862 468 507 474 
472 475 476 477 441 404 479 841 442 
483 488 885 487 889 492 886 491 493 
495 490 890 494 496 893 497 498 897 
500 898 539 941 504 902 543 510 508 
511 512 513 480 515 517 917 478 481 
444 519 882 523 925 528 922 527 532 
926 535 530 531 536 537 937 534 540 
579 544 548 549 516 546 547 551 953 
514 520 557 555 484 518 918 521 559 
921 562 563 965 565 568 962 567 572 
571 576 575 574 580 974 585 583 552 
550 589 591 950 989 554 556 560 595 
954 993 558 524 597 599 958 564 602 
603 604 601 1005 1002 1001 607 608 612 
1006 611 1010 616 615 584 621 619 588 
587 627 986 592 590 629 631 990 1029 
594 596 633 635 994 1033 600 637 639 
998 1037 641 643 644 1041 647 648 652 
1045 1049 1046 651 655 618 620 623 657 
624 1022 622 625 628 626 1025 665 667 
1065 630 632 1030 669 671 1069 634 636 
675 673 1034 1073 638 640 677 679 1038 
1077 683 684 687 691 688 1089 1085 654 
693 656 660 661 659 664 1061 658 1058 
705 662 663 668 1062 666 1066 670 672 
707 1109 709 1070 674 676 715 711 713 
1113 1074 680 717 719 1078 723 759 724 
729 692 727 696 697 695 700 1097 1094 
699 701 704 1098 745 703 708 1102 1145 
706 712 1106 749 747 710 1110 716 753 
751 714 755 757 718 720 758 1157 728 
799 726 733 731 732 1130 734 737 1133 
735 736 1137 740 1134 739 744 1141 1138 
742 785 743 748 1142 783 746 752 789 
1146 787 750 793 756 791 754 795 797 
760 800 765 762 763 767 770 772 1170 
1169 771 775 776 1174 1173 777 781 1177 
779 780 1178 782 425 423 784 788 429 
786 427 792 829 790 433 431 796 764 
435 805 803 807 1206 809 812 811 1210 
1209 816 815 1213 1214 820 819 1218 1217 
821 861 824 828 863 865 826 832 867 
830 871 836 873 801 834 804 840 838 
808 843 848 847 850 1246 851 852 1249 
1250 854 1253 855 856 1254 857 858 859 
860 1258 1257 864 903 905 866 909 868 
872 907 877 875 870 876 802 879 842 
1242 883 888 1285 887 891 892 1289 1286 
894 1290 1293 895 896 899 1297 900 939 
1298 904 943 906 945 908 912 880 913 
911 874 915 881 878 844 919 1281 923 
928 1325 1322 1282 929 927 932 1326 1329 
933 935 931 930 1330 936 934 977 938 
940 979 942 944 948 947 910 949 951 
914 916 920 957 955 1357 884 1318 959 
1321 963 1365 968 1362 969 1369 966 967 
972 1366 971 973 970 976 1370 978 975 
980 981 946 983 985 987 984 952 991 
956 960 1354 995 1393 924 997 961 1361 
999 1358 1397 964 1003 1004 1401 1405 1402 
1009 1007 1008 1012 1406 1013 1011 1016 1017 
1015 1019 1014 1021 982 988 1023 1027 992 
1390 1429 1031 996 1035 1394 1433 1000 1039 
1398 1437 1043 1042 1047 1048 1052 1445 1053 
1055 1051 1050 1018 1020 1024 1059 1026 1028 
1426 1067 1465 1032 1071 1430 1469 1036 1075 
1473 1434 1040 1079 1438 1477 1044 1081 1083 
1082 1084 1086 1087 1088 1054 1057 1056 1091 
1060 1064 1063 1068 1462 1466 1072 1470 1107 
1509 1076 1111 1115 1513 1474 1080 1117 1119 
1517 1121 1122 1123 1124 1125 1092 1127 1090 
1093 1095 1096 1100 1101 1099 1498 1501 1104 
1105 1103 1108 1505 1502 1545 1149 1506 1112 
1147 1549 1510 1151 1153 1116 1553 1114 1155 
1118 1120 1159 1161 1158 1128 1163 1126 1129 
1131 1132 1136 1135 1534 1140 1537 1139 1144 
1538 1541 1185 1143 1148 1542 1183 1585 1189 
1152 1589 1187 1546 1550 1150 1156 1191 1193 
1197 1154 1195 1160 1199 1166 1162 1165 1168 
1164 1167 1171 1172 1570 1573 1175 1176 1574 
1181 1577 1180 1179 1184 1581 1578 1182 825 
823 1188 1186 827 1192 1586 1190 833 831 
1196 839 835 1194 1198 837 1200 1202 1205 
1208 1204 1212 1610 1207 1211 1216 1215 1614 
1613 1220 1219 1221 1265 1222 1261 1224 1228 
1263 1269 1226 1267 1232 1626 1230 1234 1236 
1235 1238 1240 1279 1239 1245 1247 1243 1646 
1649 1251 1252 1650 1653 1255 1256 1259 1260 
1658 1299 1301 1262 1264 1303 1701 1305 1266 
1271 1268 1272 1666 1270 1274 1273 1275 1276 
1277 1241 1244 1280 1248 1283 1288 1685 1291 
1287 1689 1292 1686 1294 1295 1296 1694 1697 
1300 1339 1302 1341 1705 1304 1308 1702 1309 
1307 1306 1312 1311 1313 1315 1310 1317 1316 
1278 1319 1682 1323 1328 1725 1729 1327 1332 
1726 1333 1335 1331 1730 1336 1337 1334 1338 
1377 1340 1344 1345 1343 1342 1348 1745 1347 
1349 1346 1352 1314 1351 1355 1353 1320 1284 
1721 1359 1363 1368 1762 1722 1765 1367 1769 
1372 1766 1373 1371 1376 1374 1375 1379 1381 
1384 1383 1385 1382 1388 1350 1387 1391 1389 
1356 1360 1395 1324 1758 1797 1399 1761 1403 
1805 1364 1404 1802 1801 1409 1407 1408 1412 
1806 1413 1410 1411 1415 1378 1417 1380 1419 
1418 1421 1423 1425 1424 1386 1392 1427 1431 
1396 1794 1435 1833 1400 1798 1439 1837 1441 
1443 1442 1444 1449 1451 1447 1448 1446 1414 
1453 1416 1455 1457 1420 1459 1461 1422 1428 
1463 1467 1432 1830 1471 1869 1436 1475 1873 
1834 1440 1479 1838 1877 1482 1481 1483 1484 
1485 1489 1452 1487 1493 1450 1454 1491 1456 
1495 1458 1460 1464 1499 1468 1503 1905 1866 
1472 1870 1507 1511 1909 1476 1874 1913 1515 
1478 1480 1519 1917 1878 1521 1488 1525 1523 
1486 1492 1529 1527 1494 1490 1496 1531 1497 
1500 1504 1508 1902 1945 1906 1512 1910 1547 
1949 1514 1516 1555 1914 1551 1518 1557 1520 
1559 1565 1522 1528 1561 1563 1530 1526 1532 
1567 1533 1535 1536 1540 1539 1941 1544 1938 
1543 1548 1942 1985 1946 1552 1587 1989 1950 
1593 1556 1591 1554 1558 1597 1524 1595 1560 
1201 1203 1562 1568 1564 1566 1569 1571 1572 
1575 1576 1974 1977 1580 1579 1978 1584 1981 
1225 1582 1583 1223 1588 1229 1227 1986 1592 
1629 1233 1590 1231 1596 1594 1599 1237 1598 
1600 1641 1602 1604 1643 1606 1609 1608 1612 
1611 1616 2014 1615 2017 1618 1617 1620 1619 
2018 1665 1661 1622 1624 1628 1663 1630 1632 
1631 1634 1636 1633 1635 2033 1677 1638 1640 
1679 1637 1642 1645 1648 1644 1647 1651 1652 
2050 1654 1655 1656 2053 1657 1659 2057 1660 
1699 1662 1664 1668 2065 2062 1669 1671 1667 
1672 1670 2070 1673 1675 1674 1676 1717 1678 
1680 1719 1683 1688 1687 1690 2089 1692 2086 
1691 2090 1693 1695 1696 1698 1700 1704 2101 
1703 1708 2105 2102 1709 1707 1706 1712 2106 
1713 1711 1715 1710 1714 1716 2114 1681 1684 
1720 1723 2125 1728 2122 2129 1727 1732 2126 
1733 1734 1735 1731 2133 1736 2130 1737 1741 
2098 1739 1744 2141 1743 1742 1748 2145 2142 
1749 1747 1746 1752 2149 2146 1753 1751 1750 
1756 1755 1718 1759 1757 1760 2158 2165 1763 
1768 2162 1767 2169 1772 2166 1773 1770 1771 
1775 2134 1738 1740 1779 1777 1781 1778 2138 
1783 1785 1782 1784 1788 1789 1787 1786 1792 
2189 1754 1791 1793 1795 1724 1764 1799 2161 
2205 1803 1808 1804 2202 2201 1809 1807 1811 
1813 1776 1774 1815 1817 1780 1819 1818 1820 
1821 1823 2221 1822 1824 1825 1790 1827 1831 
1828 1829 1796 1835 1800 2198 2237 1839 1841 
1842 1843 1844 2241 1845 1810 1849 1812 1847 
1851 1814 1816 1855 1853 1858 1857 1859 1860 
2257 2258 1861 1863 1865 1864 2261 1826 1832 
1871 1867 1836 2234 1875 2273 1840 2238 2277 
1879 1881 1885 1848 1883 1846 1852 1889 1887 
1850 2289 1854 1856 1893 1891 2293 2254 1897 
1895 1899 1900 2294 1862 1868 1901 1903 1872 
2270 1907 2309 1911 1876 2274 1915 2313 1880 
1919 2317 1882 1888 1923 1925 1929 1886 1892 
1927 2329 2286 1890 1931 1896 1933 2290 2333 
1894 1898 1935 1937 1939 1904 1908 1943 2345 
1912 2306 1947 2349 1953 2310 1916 1955 1951 
1957 1918 1884 1920 1922 1961 1928 1963 1965 
1926 1932 1969 1967 1934 1930 1936 1971 1940 
1944 2381 1948 2342 1983 2385 1952 2346 1987 
2389 1993 1954 1956 1991 2354 1921 1924 1959 
1958 1960 1999 1962 1605 1603 1968 1964 1601 
1966 1970 1607 1972 1973 1975 1976 1980 1979 
1984 2378 1621 1625 1982 1623 1988 2382 1627 
1992 2386 2390 1990 1994 1995 1996 2393 1639 
1997 1998 2000 2398 2041 2002 2043 2004 2008 
2045 2006 2012 2047 2010 2016 2013 2020 2059 
2019 2061 2022 2024 2028 2425 2027 2422 2026 
2426 2030 2029 2032 2031 2429 2034 2036 2434 
2035 2038 2077 2040 2079 2037 2042 2044 2083 
2081 2049 2046 2048 2052 2051 2054 2055 2056 
2058 2060 2064 2461 2465 2063 2068 2462 2066 
2069 2469 2071 2067 2072 2470 2466 2073 2075 
2473 2074 2076 2474 2078 2117 2080 2119 2477 
2517 2082 2085 2088 2521 2084 2091 2087 2092 
2490 2093 2094 2095 2493 2096 2497 2097 2458 
2099 2104 2501 2103 2108 2502 2109 2107 2111 
2112 2510 2115 2113 2513 2110 2116 2514 2155 
2118 2120 2157 2159 2123 2128 2124 2127 2131 
2529 2132 2526 2533 2137 2494 2100 2135 2537 
2139 2144 2498 2538 2541 2143 2148 2545 2542 
2147 2152 2546 2150 2151 2153 2156 2121 2154 
2160 2554 2597 2163 2168 2565 2562 2167 2530 
2171 2569 2136 2140 2173 2175 2534 2573 2179 
2181 2177 2178 2184 2581 2577 2578 2185 2183 
2585 2182 2582 2188 2187 2186 2192 2193 2191 
2190 2196 2593 2590 2195 2199 2197 2200 2207 
2203 2204 2170 2172 2209 2211 2570 2213 2174 
2176 2215 2574 2218 2180 2217 2219 2617 2618 
2222 2223 2225 2625 2224 2228 2621 2629 2227 
2229 2226 2232 2626 2231 2194 2233 2235 2164 
2601 2239 2208 2206 2245 2243 2602 2606 2645 
2212 2210 2610 2251 2247 2249 2649 2214 2216 
2255 2253 2614 2653 2220 2259 2260 2658 2263 
2264 2262 2265 2267 2268 2269 2230 2236 2271 
2275 2673 2240 2279 2641 2242 2248 2283 2285 
2642 2685 2246 2252 2287 2250 2291 2646 2650 
2256 2295 2693 2297 2299 2298 2300 2301 2303 
2305 2304 2266 2272 2311 2307 2276 2713 2315 
2244 2278 2280 2281 2678 2325 2282 2288 2323 
2682 2725 2292 2327 2296 2331 2336 2690 2335 
2337 2339 2334 2340 2734 2302 2308 2341 2343 
2312 2749 2347 2314 2353 2710 2316 2320 2351 
2714 2717 2321 2318 2284 2319 2757 2365 2322 
2328 2363 2326 2332 2369 2367 2373 2330 2371 
2730 2773 2338 2377 2375 2379 2344 2348 2785 
2383 2352 2387 2750 2350 2355 2356 2753 2324 
2361 2359 2358 2357 2360 2399 2001 2362 2003 
2005 2368 2366 2009 2007 2372 2409 2015 2374 
2370 2011 2376 2380 2384 2778 2021 2025 2023 
2388 2782 2786 2392 2391 2790 2394 2395 2396 
2794 2397 2797 2364 2039 2400 2402 2441 2404 
2443 2841 2445 2449 2408 2406 2412 2447 2849 
2414 2410 2451 2810 2418 2457 2420 2424 2821 
2428 2825 2423 2822 2427 2430 2432 2830 2431 
2433 2436 2834 2833 2435 2438 2440 2479 2877 
2838 2837 2481 2442 2444 2881 2842 2483 2485 
2446 2450 2448 2885 2487 2846 2452 2454 2453 
2455 2456 2459 2464 2861 2463 2468 2467 2866 
2862 2471 2472 2869 2870 2475 2873 2476 2874 
2515 2478 2480 2878 2519 2917 2482 2523 2484 
2921 2882 2489 2486 2488 2492 2491 2460 2495 
2897 2499 2504 2858 2901 2505 2503 2905 2902 
2508 2509 2506 2507 2909 2511 2512 2906 2910 
2516 2914 2555 2913 2518 2520 2918 2557 2559 
2957 2525 2522 2528 2524 2496 2527 2531 2933 
2500 2535 2937 2894 2539 2941 2544 2898 2938 
2945 2543 2942 2548 2549 2547 2949 2552 2946 
2553 2550 2551 2953 2556 2950 2558 2599 2595 
2560 2958 2954 2997 2561 2563 2567 2564 2532 
2571 2930 2969 2536 2934 2540 2575 2977 2973 
2579 2981 2580 2978 2584 2583 2985 2588 2982 
2589 2587 2989 2586 2592 2986 2633 2591 2993 
2596 3033 2990 2598 2594 2994 2635 2600 2568 
2566 2605 2603 2607 2966 2962 3005 2572 2611 
2609 2970 3009 2613 2576 2615 2974 3013 2619 
3017 2620 3018 2623 3025 2624 2622 2628 3021 
3022 2627 3029 2632 3026 2630 2631 2634 2636 
2637 2639 2608 2643 3006 3045 2612 2651 2647 
2616 3014 3053 2655 2657 2659 2660 3057 2661 
2663 2664 2662 3062 2669 2667 2665 3069 2668 
2666 3066 3065 2671 2675 2672 2638 2677 2604 
2640 2679 3041 2648 2683 3085 2652 2687 2689 
3089 3046 3050 2654 2656 2691 2695 2694 2697 
2699 2698 2700 2701 2703 2704 2702 3101 3102 
2705 2709 2707 2711 2708 3105 2674 2670 2676 
2680 2644 2681 2719 3078 3081 2688 2723 3125 
3082 2686 2729 2692 2727 3086 2733 2696 2731 
3133 3090 2735 2737 2739 3134 2740 2738 3137 
2741 2743 2744 2745 2706 2712 2747 2715 2716 
2720 3114 3157 2721 2684 2718 2759 3121 3118 
2722 2765 2728 2763 2726 2732 2767 2769 3126 
3169 2736 2771 3173 2776 3130 2775 2777 3177 
2780 2774 3174 2781 2742 2779 2748 2783 2746 
2752 2751 2754 2755 2756 3153 2761 2724 2758 
2760 2799 3197 2762 2401 2403 2764 2405 2768 
2766 2407 2772 3166 2770 2416 2413 2411 3170 
2813 2417 2415 2419 2784 2421 2788 2787 3186 
2789 2792 2791 3189 3190 2793 2795 2796 3194 
3193 2798 2437 2439 2800 3198 2802 2804 2843 
3241 3202 2806 2845 2808 3245 2812 3206 2847 
2853 2851 2816 2814 2820 2824 2826 2828 2823 
3225 2827 3226 2829 2832 3229 2831 3230 2836 
2875 3233 2835 3234 2840 2879 3238 3277 2844 
2883 3242 3281 2848 2852 2887 2893 2850 2857 
2856 2855 3254 2818 2859 3258 2864 3257 2865 
2863 2868 3265 2871 2867 3269 3266 2872 3270 
3273 2876 3274 2880 2919 3278 3317 2884 2923 
2889 2886 2891 2888 2892 3286 2854 2890 2860 
2895 3297 3293 2899 3301 2904 2903 3302 2908 
3305 3309 2907 2912 3306 2915 2911 3313 3310 
2916 3314 2955 2959 2920 3318 3357 2925 2922 
2928 2924 3325 3322 2926 2929 2927 2931 2896 
2900 2935 3337 3333 3298 2939 3338 2944 3345 
2943 2948 3342 2947 3349 2952 3346 3353 2951 
2956 3350 2995 2960 2999 3354 2961 2965 2963 
2967 3362 3365 2932 2971 3330 2936 3334 2975 
3373 2940 2979 3381 2980 3378 3377 2983 3385 
2984 2988 3382 3389 2987 2992 3386 2991 3393 
2996 3390 2964 2998 3037 3000 2968 3003 3007 
3366 3405 2972 3409 3011 3370 2976 3015 3374 
3413 3019 3417 3020 3418 3023 3421 3425 3024 
3027 3429 3028 3426 3032 3030 3031 3035 3036 
3039 3034 3001 3002 3008 3445 3043 3402 3010 
3049 3012 3410 3051 3047 3406 3449 3054 3016 
3414 3055 3453 3454 3059 3457 3058 3060 3458 
3061 3063 3461 3064 3462 3465 3067 3068 3072 
3071 3073 3075 3070 3434 3038 3004 3040 3042 
3048 3442 3083 3485 3052 3087 3446 3489 3094 
3093 3056 3091 3095 3450 3493 3097 3098 3099 
3494 3100 3498 3103 3501 3104 3109 3107 3111 
3108 3106 3074 3076 3077 3080 3079 3044 3119 
3441 3481 3088 3123 3525 3482 3129 3092 3486 
3127 3529 3096 3131 3533 3136 3135 3537 3534 
3140 3139 3141 3143 3142 3138 3144 3110 3112 
3145 3113 3147 3115 3117 3116 3120 3084 3159 
3518 3521 3122 3165 3128 3522 3163 3565 3132 
3167 3569 3526 3530 3573 3171 3176 3175 3179 
3181 3146 3148 3149 3150 3152 3151 3154 3155 
3156 3160 3554 3161 3124 3561 3158 3558 3199 
2801 3162 2803 3168 3562 3164 3201 2805 3205 
2809 2807 3209 3172 3566 2811 2815 3570 2819 
2817 3178 3180 3184 3182 3221 3185 3183 3188 
3187 3192 3191 3590 3195 3196 3594 3593 2839 
3200 3237 3598 3597 3602 3204 3641 3243 3249 
3208 3212 3247 3210 3214 3216 3215 3217 3218 
3220 3219 3222 3224 3228 3227 3232 3231 3630 
3629 3236 3235 3634 3240 3638 3677 3279 3248 
3283 3244 3285 3642 3646 3246 3251 3252 3250 
3255 3253 3256 3654 3261 3259 3260 3264 3658 
3262 3263 3662 3268 3665 3669 3267 3272 3666 
3271 3275 3673 3276 3670 3674 3280 3319 3678 
3717 3282 3321 3288 3284 3287 3682 3289 3292 
3291 3689 3686 3690 3290 3295 3296 3693 3694 
3299 3304 3705 3303 3308 3307 3312 3709 3311 
3713 3315 3316 3710 3714 3355 3320 3718 3323 
3328 3725 3722 3329 3326 3327 3332 3726 3729 
3294 3300 3331 3335 3733 3730 3341 3698 3339 
3737 3738 3741 3344 3343 3745 3348 3742 3749 
3347 3352 3746 3351 3753 3356 3750 3754 3359 
3358 3324 3360 3721 3363 3368 3367 3371 3369 
3769 3336 3734 3375 3340 3379 3380 3777 3778 
3383 3785 3781 3384 3782 3388 3387 3789 3392 
3786 3391 3395 3793 3396 3394 3397 3361 3364 
3399 3403 3404 3407 3802 3372 3770 3411 3809 
3376 3415 3774 3813 3814 3419 3420 3818 3817 
3423 3821 3424 3422 3822 3825 3427 3428 3432 
3433 3431 3430 3435 3398 3400 3437 3401 3439 
3408 3443 3841 3806 3845 3412 3810 3451 3447 
3849 3416 3455 3853 3459 3857 3460 3858 3861 
3463 3464 3468 3469 3467 3471 3466 3436 3475 
3473 3438 3440 3477 3479 3878 3448 3842 3483 
3885 3452 3487 3889 3846 3456 3495 3491 3854 
3850 3893 3497 3499 3897 3500 3894 3503 3505 
3502 3470 3472 3509 3511 3507 3513 3474 3476 
3515 3478 3444 3480 3881 3488 3523 3925 3882 
3492 3527 3929 3886 3531 3490 3496 3933 3890 
3539 3535 3541 3504 3508 3545 3506 3549 3512 
3547 3514 3517 3510 3551 3516 3520 3484 3519 
3559 3921 3528 3965 3563 3922 3961 3532 3926 
3567 3969 3536 3571 3575 3930 3538 3540 3577 
3544 3542 3543 3548 3585 3550 3546 3552 3587 
3553 3555 3556 3557 3957 3524 3560 3958 3599 
3997 3601 3203 3564 3962 3568 3605 3207 3572 
3966 3574 3213 3211 3576 3581 3579 3578 3580 
3584 3586 3582 3223 3583 3588 3589 3591 3592 
3595 3596 3994 3993 3239 3637 3600 3998 3645 
3608 3604 3643 3606 3610 3612 3611 3614 3613 
13 3616 3615 3618 3617 18 3620 3619 3661 
3622 3621 3624 22 3628 3663 3626 3632 3631 
65 3633 34 33 3636 3675 38 77 3640 
3679 3648 3647 3650 50 3649 3652 3651 3653 
54 3655 3656 3657 3659 3660 3699 3664 3668 
69 3667 3672 3671 70 73 74 3676 3644 
3715 3680 85 82 3681 3685 3683 3688 89 
3687 3692 3691 90 94 3695 3696 97 98 
3701 3697 3700 3704 3702 105 3703 3708 3706 
109 3707 106 3712 113 3711 110 3716 3719 
3720 125 3723 3728 126 3727 3732 130 3735 
3731 3736 137 134 3739 141 3744 145 3743 
142 3748 149 3747 146 3752 3751 3755 3756 
118 3757 3684 3759 3765 3763 3762 3768 169 
166 3766 3767 3772 173 170 3773 3771 3775 
138 3740 177 178 3779 3780 185 181 3783 
182 3784 3788 3787 3792 3791 3760 3790 3795 
161 3758 3724 3797 3761 3799 202 3805 3803 
3804 209 206 3807 3808 3811 3776 3815 213 
217 3819 218 3820 221 3823 3824 3828 3829 
3827 3826 3831 3794 3796 3833 3835 3800 3764 
3798 3801 3837 3839 242 3843 3844 245 249 
3812 210 3851 3847 214 3816 3855 253 257 
3859 3860 3865 3863 3862 3867 3830 3832 3869 
3871 3834 3836 3873 3875 3838 3840 3879 3877 
281 3848 285 3883 289 246 3852 3887 250 
254 293 3856 3891 3895 3896 3899 3901 3864 
3868 3905 3870 3866 3872 3907 3909 3911 3874 
3876 3913 3915 317 318 3917 3880 3919 282 
3888 325 3923 329 286 3892 3927 3931 290 
3935 3898 3937 3900 3904 3902 3903 3908 3945 
3943 3949 3906 3912 3947 3914 3953 3910 3916 
3951 3955 357 3884 3918 3920 321 3959 365 
322 3928 3963 361 326 3932 3967 3934 3973 
3936 3971 3940 3938 3939 3944 3941 3985 3942 
3948 3983 3946 3989 3952 3987 3954 3950 3956 
3991 358 397 3924 3960 3999 3603 1 362 
3964 3968 3609 3607 3972 3970 3975 3976 3974 
3978 3977 3981 3979 3980 3984 3625 3982 3623 
3988 3986 3990 3627 3992 3635 394 3995 3996 
3639 398 37 4000 
type 1 4000 int
1 1 1 1 1 1 1 1 1 
1 1 1 1 1 1 1 1 1 
1 1 1 1 1 1 1 1 1 
1 1 1 1 1 1 1 1 1 
1 1 1 1 1 1 1 1 1 
1 1 1 1 1 1 1 1 1 
1 1 1 1 1 1 1 1 1 
1 1 1 1 1 1 1 1 1 
1 1 1 1 1 1 1 1 1 
1 1 1 1 1 1 1 1 1 
1 1 1 1 1 1 1 1 1 
1 1 1 1 1 1 1 1 1 
1 1 1 1 1 1 1 1 1 
1 1 1 1 1 1 1 1 1 
1 1 1 1 1 1 1 1 1 
1 1 1 1 1 1 1 1 1 
1 1 1 1 1 1 1 1 1 
1 1 1 1 1 1 1 1 1 
1 1 1 1 1 1 1 1 1 
1 1 1 1 1 1 1 1 1 
1 1 1 1 1 1 1 1 1 
1 1 1 1 1 1 1 1 1 
1 1 1 1 1 1 1 1 1 
1 1 1 1 1 1 1 1 1 
1 1 1 1 1 1 1 1 1 
1 1 1 1 1 1 1 1 1 
1 1 1 1 1 1 1 1 1 
1 1 1 1 1 1 1 1 1 
1 1 1 1 1 1 1 1 1 
1 1 1 1 1 1 1 1 1 
1 1 1 1 1 1 1 1 1 