# vtk DataFile Version 4.0
Generated by LAMMPS
ASCII
DATASET POLYDATA
POINTS 4000 float
5.34366 1.17893 1.23197 3.22248 1.50187 -0.772711 3.39271 -0.876057 1.29289 
1.49091 -0.905811 3.25707 9.0674 1.46928 1.33334 7.22958 1.25455 -0.931005 
7.0728 3.24665 1.5109 7.16041 -0.862541 1.26222 8.8605 3.49194 -0.752368 
12.6434 1.60111 1.49183 10.8007 3.5179 1.24073 10.9927 -0.702614 1.46179 
12.9052 -0.665311 -0.718513 16.6625 1.47271 1.44322 16.425 3.46617 3.35806 
16.5636 -0.644465 3.59545 14.5221 3.55412 1.4011 14.7226 -0.747134 1.39866 
14.6109 1.39678 3.42962 16.4809 3.51864 -0.651666 20.1926 1.45809 1.42765 
18.4224 3.46632 1.27648 22.068 3.40691 1.35727 22.0479 1.14037 3.47901 
22.1236 1.48595 -0.617348 24.0493 1.47061 1.41311 25.8579 1.38406 3.52536 
25.9442 -0.736532 1.25558 23.9413 3.37905 3.50475 27.7778 1.27167 1.41178 
29.6252 1.32305 -0.598656 29.6617 3.58072 1.53931 31.5421 1.27792 1.33068 
33.4262 3.52931 1.35212 33.4076 -0.66675 1.3158 31.5567 3.51376 3.50844 
38.9108 1.40471 1.25696 35.2591 1.39007 1.37033 37.1229 1.31272 3.38509 
3.30459 3.55908 1.28933 5.17925 5.55656 1.33679 5.05026 7.65562 3.34417 
3.39572 5.49195 3.51539 5.37514 3.56386 -0.747203 3.37833 5.5334 -0.741397 
8.99622 5.46215 1.33954 7.08036 5.54242 3.20317 7.13102 7.42854 1.32349 
7.16563 5.68976 -0.905879 9.07453 7.67801 -0.699735 12.6863 5.52993 1.31295 
10.9636 7.59557 1.48071 12.7585 7.65113 -0.79213 16.4721 5.59871 1.36473 
14.6188 7.77115 1.37868 20.3668 5.42157 1.60877 18.6181 7.70438 1.37169 
20.0794 3.50472 -0.830796 22.1879 5.47457 -0.602983 20.4094 7.72532 -0.640437 
25.9209 3.49799 1.40605 24.0957 5.43928 1.53383 25.9298 5.48153 3.51144 
27.715 5.56625 1.28438 31.4845 5.55072 1.32349 33.3769 5.63266 3.43801 
31.5484 7.71823 -0.713306 38.9309 5.5529 1.4793 36.9939 3.48511 1.27676 
35.4103 5.76802 1.37358 37.2662 7.742 1.22093 37.1406 5.67264 -0.685246 
37.0649 5.33598 3.51994 35.3961 7.87436 -0.541898 39.1135 7.69928 -0.846901 
3.15505 7.65263 1.44964 5.16939 9.64142 1.25527 5.1265 12.0079 3.54097 
3.465 11.9177 1.38604 1.48438 7.76927 3.57818 5.20524 7.66772 -0.669431 
3.46256 9.74577 -0.945234 8.88049 9.80465 1.37891 7.10367 11.8289 1.15113 
6.9788 9.81698 3.5234 12.7339 9.80083 1.43412 10.6649 9.94774 3.42057 
10.8828 11.9229 1.22591 12.7829 11.8747 3.24777 10.9269 9.63269 -0.704087 
16.5059 9.67077 1.37854 16.4458 7.61427 -0.67617 14.742 9.693 -0.78151 
22.219 7.62162 1.5951 20.4914 9.80301 1.23503 22.0567 11.8548 1.39579 
22.1283 9.78281 3.53755 18.356 9.6259 -0.672879 18.3497 11.8224 1.26477 
18.6071 9.77631 3.2757 25.7256 7.61937 1.40565 23.8991 9.80955 1.37105 
25.9129 9.83787 3.42846 25.7839 9.58551 -0.696247 29.643 7.6856 1.48268 
27.6882 9.81628 1.38909 29.5693 11.8982 1.26948 27.6694 7.7213 3.57905 
33.3302 7.74107 1.49932 31.3394 9.80573 1.24267 39.0188 9.80219 1.25774 
35.1722 9.87146 1.26997 36.97 9.77566 3.52411 37.1235 11.9581 1.40949 
5.21502 13.9618 1.46598 5.06568 11.9588 -0.800325 3.24118 14.1616 -0.776166 
9.05399 14.0464 1.32026 7.13722 16.0404 1.51868 7.10246 13.9212 -0.744541 
12.7658 14.0513 1.50015 10.9488 16.0899 1.29759 12.765 16.3207 3.29259 
14.5273 12.0673 0.984534 16.3902 13.8456 1.37722 14.6117 13.9242 -0.816079 
14.8085 16.0306 1.299 14.7659 14.1764 3.45236 20.3966 13.9638 1.46503 
18.2885 15.892 1.49472 18.2336 13.7754 3.51024 18.404 13.8562 -0.578963 
25.989 11.8486 1.40145 23.9778 14.0122 1.45249 25.8159 16.109 1.30835 
23.9032 16.0678 -0.848118 25.9849 13.8146 3.2885 24.1146 11.856 -0.739629 
27.7041 14.01 1.23508 33.1537 11.8086 1.48278 31.3535 12.0117 3.64308 
31.3379 14.2395 1.41708 33.4314 15.9986 1.61031 31.4605 15.9416 3.51094 
33.377 13.8647 -0.511995 35.159 11.8313 -0.748555 38.9052 14.0076 1.44863 
35.2639 14.0088 1.49997 3.55701 16.0056 1.40747 5.202 18.1712 1.50502 
1.64452 18.2233 1.36393 3.4201 18.2138 -0.752978 8.95087 18.1343 1.39479 
7.25516 20.281 1.39853 9.07911 20.3707 -0.743835 7.23701 18.1325 3.50917 
12.6436 18.4187 1.39228 10.8912 18.2534 -0.720549 12.8026 20.2652 -0.722852 
16.6386 18.1571 1.46646 14.5544 18.2337 3.55134 22.1817 15.9036 1.45714 
20.2197 18.2036 1.34473 18.3868 20.2268 1.56792 22.1999 20.2642 1.26836 
20.1579 20.1907 3.43508 18.2379 18.0761 3.41783 22.1306 18.1679 3.50556 
18.2969 18.093 -0.765202 23.8949 18.2751 1.34422 25.7748 18.215 -0.722341 
23.9934 16.1484 3.51211 25.9091 18.162 3.58972 29.4558 16.0821 1.16373 
27.768 18.178 1.20017 29.5666 18.1565 -0.82891 27.6602 16.0325 3.55516 
31.6329 18.0933 1.419 33.3334 18.0508 -0.792172 31.576 15.906 -0.663759 
37.1019 16.0499 1.37344 38.9794 16.181 3.40949 35.1575 18.0514 1.28811 
37.1297 18.2806 3.37522 37.0322 20.1772 1.30919 37.0276 18.0424 -0.747071 
3.39283 20.2367 1.41999 5.11043 22.3882 1.22964 1.4584 21.9913 1.19914 
5.17742 24.4257 -0.681935 5.36125 20.2728 -0.754745 1.3554 20.1121 -0.815448 
3.22101 22.3058 -0.789421 8.99067 22.3125 1.28042 7.10562 24.4366 1.27321 
9.08998 24.4231 -0.743364 7.10062 22.4689 -0.791936 10.9218 20.2948 1.37636 
12.7758 20.4633 3.51979 12.7463 22.5147 1.43325 10.8847 24.6327 1.4019 
12.7017 24.6567 3.45199 12.6856 24.4675 -0.992282 14.6341 20.2827 1.29223 
16.4902 22.443 1.47856 14.5589 24.5556 1.36142 16.5492 24.4587 3.59202 
20.2262 22.2415 1.31751 22.0543 22.1762 3.26345 18.3542 24.2683 1.33332 
22.1588 22.4387 -0.666016 25.767 20.2357 1.39503 24.1213 22.2812 1.25388 
24.2041 20.2841 -0.882657 25.8863 22.434 -0.74635 29.695 20.2402 1.01631 
27.6423 20.2685 -0.777313 27.7752 22.3491 1.20421 27.8086 24.3607 -0.820788 
29.6398 22.3396 3.28804 29.6813 22.2875 -0.839352 33.5571 20.2234 1.41073 
31.4984 22.3575 1.23182 33.1794 24.4937 1.27334 31.4322 20.4573 3.29111 
33.5557 22.3648 -0.929316 35.1981 20.2196 -0.856272 35.1698 22.5072 1.35661 
37.2067 22.5082 3.32805 37.2927 24.4645 1.34165 37.0899 22.2922 -0.829032 
3.21774 24.3325 1.18302 5.35079 26.5223 1.26471 3.43737 26.7248 -0.735674 
1.41601 24.297 -0.764402 5.3832 28.74 -0.853888 5.32693 28.6652 3.55748 
8.93914 26.7197 1.31457 7.08072 28.6039 1.31948 8.96879 28.7656 3.43403 
11.0015 26.5943 -0.736114 12.6607 26.6463 1.49896 12.7744 28.8149 -0.727978 
16.5704 26.4917 1.54772 16.5531 28.6599 3.56499 14.5943 28.47 1.49161 
21.9708 24.3573 1.38908 20.2787 26.4932 1.28112 18.5027 26.4753 3.29932 
26.0539 24.274 1.31762 23.9948 26.3823 1.34654 25.8909 26.3748 -0.787006 
24.064 24.3921 -0.81669 29.6678 24.481 1.24071 27.6848 26.5002 1.2534 
29.5858 28.696 1.36347 29.4427 26.6535 3.58735 31.5736 24.4031 -0.862898 
31.3901 26.6185 1.48147 33.2566 26.4441 -0.683094 33.5806 28.5886 1.28623 
31.3777 28.8103 -0.85921 31.6343 28.671 3.33588 38.9852 26.6829 1.09442 
35.3429 26.5348 1.3616 37.006 26.5343 -0.704635 35.2886 24.4338 -0.732096 
3.51187 28.7705 1.36517 5.23454 30.8288 1.42855 3.5031 32.9571 1.26083 
3.4135 30.732 -0.742592 1.46272 30.9893 1.32624 1.35532 28.8111 -0.803288 
9.05697 28.596 -0.786916 8.89883 30.7451 1.31053 7.12968 33.0401 1.27941 
7.29486 30.7583 -0.661938 10.9512 28.7468 1.19651 12.793 30.8019 1.34136 
10.7281 30.8037 3.32958 10.7553 32.8262 1.35012 12.6641 28.6688 3.52682 
16.3833 30.7229 1.4027 18.2941 30.7147 3.48103 16.6578 32.8646 3.47835 
18.3132 28.6547 1.23154 20.3348 28.7749 3.40128 22.1459 28.7003 1.3879 
20.1694 30.6886 1.32303 18.4481 32.8913 1.54375 20.2067 32.7311 3.74639 
25.6661 28.4954 1.21617 23.8971 30.7519 1.4795 25.7574 30.5824 -0.715115 
25.8473 32.7197 1.34809 23.9607 33.0003 3.30829 27.7256 30.7274 1.39581 
29.6022 30.686 3.55752 29.4529 32.7972 1.32505 27.7353 32.7976 -0.755343 
27.7513 28.5961 -0.758267 31.4301 30.7785 1.40511 33.4368 32.8217 1.48024 
31.4722 32.683 3.37604 37.1508 28.7607 1.38357 35.0923 30.7857 1.50456 
35.3259 32.8595 -0.770936 39.1789 32.8953 -0.794943 5.11364 35.0027 1.29758 
3.48956 34.951 -0.808621 3.40398 37.0749 1.27114 1.56849 34.8933 1.39752 
5.43144 32.7462 -0.691098 5.3581 37.0929 -0.744734 9.12606 34.9916 1.18268 
9.00133 37.0495 -0.754016 9.07634 32.7983 -0.821033 7.12698 34.953 -0.711321 
12.8312 34.991 1.28623 12.639 32.7947 3.45906 14.7586 32.9102 1.43391 
16.5017 34.9131 1.16318 16.5486 32.7472 -0.655845 14.6397 34.968 3.43651 
14.5846 34.8384 -0.830211 22.1298 32.7795 1.42291 20.3832 34.8921 1.36784 
18.5594 35.1089 3.43948 18.4096 37.0958 1.5461 20.4565 37.2643 3.51176 
20.3794 37.0953 -0.845183 23.9341 35.0868 1.35881 25.8642 37.2285 1.38792 
25.7659 35.104 3.24419 23.9176 37.2176 3.54464 27.7488 34.9346 1.39171 
29.5873 34.9265 -0.782009 27.6325 36.9785 -0.630396 27.5569 32.8968 3.49837 
29.6141 34.9591 3.34259 31.5243 34.7872 1.30414 33.3087 34.8311 -0.830863 
37.2141 32.7962 1.39591 35.1977 34.8266 1.45486 37.0732 34.8736 -0.78799 
5.29831 39.0403 1.317 1.37187 38.9232 1.12476 1.45446 36.9279 -0.846784 
1.46454 41.2415 -0.723151 3.34968 39.0739 -0.843278 9.18099 41.1476 3.46693 
7.18575 37.0142 1.37224 9.09114 39.2359 1.27787 11.0693 37.099 1.29104 
12.8481 39.1563 1.2827 10.9697 39.01 3.45495 10.9513 39.3729 -0.692522 
12.8108 37.0562 -0.835153 16.3811 37.078 3.40017 14.7747 37.0358 1.16907 
16.5522 39.1418 1.44928 14.7111 39.1541 -0.774288 22.0347 41.3891 1.32519 
18.3703 41.2988 1.32896 22.1146 37.2558 1.43978 20.1148 39.1535 1.50444 
20.2592 41.2224 3.35084 24.0907 41.2703 3.41912 24.1667 39.2737 1.28319 
29.7566 41.2005 1.32221 29.6395 36.866 1.40392 27.9595 39.078 1.29967 
29.6239 39.261 -0.930666 27.7598 37.0448 3.3831 29.7407 39.1732 3.3031 
31.442 37.0155 -0.700336 33.4085 36.944 1.17022 31.5551 39.0653 1.29659 
33.286 39.0966 -0.891186 31.4595 41.3309 3.62829 31.5199 41.3507 -0.67745 
37.0664 36.9521 1.2099 37.1977 41.0281 1.22186 35.1743 39.1068 1.18854 
37.1713 39.1485 3.29865 37.0726 39.0902 -0.950561 35.2345 36.9923 -0.922396 
3.36846 1.33689 3.39694 5.26047 1.32671 5.72672 3.30802 1.44028 7.62506 
3.28868 -0.637255 5.25932 1.40205 1.33965 5.47301 5.31527 -0.780749 3.34569 
9.00326 3.33771 3.45454 7.2343 1.22212 3.36064 8.8989 1.2956 5.68178 
7.13823 -0.798389 5.4227 10.8613 1.35123 3.49796 12.7709 -0.697968 3.51785 
12.6276 1.37476 5.51341 10.7169 1.37722 7.71935 12.7798 -0.768527 7.60876 
[...]
POINT_DATA 4000
FIELD FieldData 6
id 1 4000 int
8 2 3 401 12 6 47 7 49 
16 51 11 13 20 457 417 55 15 
414 57 24 59 63 422 22 28 426 
27 465 32 30 71 36 75 35 473 
4 40 438 43 48 485 442 45 42 
52 446 87 46 89 56 91 93 60 
95 64 99 61 62 101 67 68 466 
72 76 474 113 44 79 80 119 78 
478 117 81 83 88 525 123 481 85 
82 92 127 486 96 490 131 533 90 
100 97 94 103 104 143 502 98 139 
498 107 108 506 106 111 112 151 509 
115 116 84 120 518 159 128 125 122 
132 167 126 136 171 573 135 140 134 
175 534 144 179 538 138 147 148 187 
185 546 145 152 155 553 156 195 593 
154 157 124 160 163 168 164 162 172 
207 209 566 176 170 213 180 574 183 
184 219 223 621 578 582 178 188 186 
585 586 191 192 190 589 196 194 193 
199 561 200 598 239 198 203 208 204 
245 205 201 202 212 247 249 206 211 
613 216 251 653 253 215 220 255 657 
224 622 259 222 227 228 225 226 231 
229 232 269 630 230 235 236 275 633 
234 237 240 638 279 238 243 248 242 
241 285 685 252 287 689 250 256 293 
260 697 295 263 264 658 267 268 266 
265 271 272 311 670 273 276 274 315 
313 713 244 280 278 277 283 288 323 
282 284 281 289 292 327 286 291 296 
690 331 693 300 698 737 299 701 303 
304 339 741 307 308 306 347 745 312 
710 351 349 309 316 355 753 319 320 
357 321 328 322 363 324 325 365 332 
369 329 326 336 733 335 340 337 734 
334 343 344 738 379 781 381 348 387 
746 785 352 350 389 749 750 356 354 
359 360 358 368 364 361 1 362 409 
367 372 371 376 770 370 373 777 375 
380 374 23 19 383 384 421 425 388 
31 391 392 390 789 790 393 395 396 
394 433 33 399 39 400 798 398 397 
402 408 802 403 404 405 449 406 412 
407 410 413 416 810 813 420 418 461 
424 459 822 861 428 463 427 430 432 
469 431 429 830 829 434 436 435 475 
834 440 479 439 441 445 443 845 448 
842 447 452 453 450 451 456 491 850 
454 497 455 460 854 897 495 857 458 
462 464 503 501 499 862 467 468 865 
866 470 471 869 472 870 513 476 515 
873 517 444 477 480 482 521 483 488 
484 882 925 489 889 487 492 527 493 
496 531 933 494 537 500 535 541 504 
902 505 507 508 945 547 511 510 512 
910 949 514 516 555 914 557 519 917 
520 559 957 522 523 528 524 961 565 
526 529 532 569 926 530 536 571 930 
577 540 575 937 934 542 539 543 544 
942 938 545 548 946 549 551 550 552 
950 554 556 954 558 560 599 563 562 
605 568 962 609 567 572 969 966 1009 
570 576 1013 970 611 580 615 581 579 
583 584 978 982 619 587 985 588 986 
591 989 590 592 594 595 596 994 597 
564 600 998 639 997 603 602 645 608 
604 607 606 612 647 649 1006 610 616 
1010 651 617 614 620 1014 1017 618 623 
624 625 626 627 628 631 629 632 671 
634 635 636 675 1033 637 601 640 642 
641 643 648 1045 681 644 646 652 687 
1049 650 656 1093 655 654 660 1054 1097 
661 662 659 663 664 666 665 667 668 
707 1066 669 709 672 711 674 673 676 
678 677 679 680 1078 717 1077 683 682 
688 723 1085 686 692 727 1086 691 696 
1133 694 695 700 1094 699 703 702 704 
739 743 1141 705 706 708 1105 1145 712 
751 714 715 716 755 719 684 718 720 
759 765 721 725 722 728 724 1122 729 
726 732 767 1126 730 731 736 1130 735 
740 775 742 744 1142 783 779 747 748 
1146 752 791 1189 754 756 795 1154 757 
758 760 763 762 768 761 764 769 766 
772 1166 1169 773 771 411 776 1170 774 
415 780 1174 778 419 782 423 784 1182 
787 786 788 792 794 793 796 833 797 
799 437 800 808 1202 803 1241 805 1201 
806 812 807 847 1209 1249 816 811 853 
1210 1213 814 817 820 815 855 1217 818 
824 819 863 1218 1222 826 828 867 1265 
1226 1225 832 1230 871 1269 836 1273 1233 
838 837 877 804 840 839 843 844 848 
881 846 849 852 887 893 851 856 1293 
891 860 895 1254 858 859 864 1258 903 
1261 868 1266 905 907 872 1270 913 875 
874 876 915 1313 841 878 879 880 919 
885 883 1281 888 884 1282 886 892 1286 
929 927 890 896 894 900 1294 901 898 
899 904 1302 939 906 908 1306 909 911 
1309 912 1310 1349 916 955 1353 1314 918 
920 959 1321 922 923 928 1325 1322 932 
1329 973 931 936 971 1337 935 940 1334 
981 941 943 944 983 1342 947 948 951 
952 1350 953 956 1354 921 958 924 960 
1358 963 965 968 964 1003 967 972 1409 
1007 1369 1366 976 1011 1370 1413 977 974 
975 980 1374 1015 1377 979 984 1378 1023 
1021 1019 987 988 990 991 992 1390 993 
995 996 1035 1394 1037 999 1000 1039 1001 
1397 1005 1002 1008 1004 1445 1441 1401 1402 
1012 1406 1047 1449 1053 1016 1051 1410 1020 
1057 1414 1417 1022 1018 1024 1063 1422 1418 
1026 1025 1027 1028 1029 1030 1069 1031 1032 
1071 1034 1073 1036 1075 1038 1040 1041 1043 
1042 1048 1046 1052 1446 1050 1056 1453 1058 
1055 1060 1061 1062 1059 1064 1103 1461 1501 
1065 1067 1068 1107 1465 1070 1109 1072 1111 
1074 1076 1513 1079 1044 1080 1478 1083 1082 
1081 1088 1123 1482 1089 1087 1092 1090 1091 
1096 1095 1100 1135 1494 1099 1101 1098 1102 
1104 1498 1502 1106 1505 1108 1506 1545 1147 
1509 1110 1112 1549 1510 1113 1115 1114 1116 
1514 1553 1117 1118 1119 1084 1120 1125 1124 
1128 1165 1521 1565 1129 1529 1127 1132 1526 
1533 1131 1136 1530 1573 1137 1134 1140 1177 
1534 1139 1138 1143 1144 1181 1183 1538 1542 
1148 1585 1185 1187 1150 1149 1151 1152 1191 
1153 1193 1155 1156 1195 1159 1157 1121 1158 
1160 1199 1161 1162 801 1163 1168 1164 1561 
1562 809 1167 1172 1569 1173 1171 1176 1570 
1175 1180 1577 1574 821 1179 823 1178 1184 
1582 1578 825 1186 827 1188 1586 1190 831 
1192 1229 1194 835 1196 1197 1198 1200 1205 
1208 1204 1245 1243 1203 1206 1212 1606 1247 
1253 1216 1653 1613 1610 1214 1220 1614 1257 
1255 1215 1224 1223 1622 1228 1227 1267 1626 
1665 1232 1234 1236 1275 1633 1238 1240 1279 
1242 1248 1642 1285 1246 1252 1689 1250 1251 
1256 1650 1260 1654 1259 1263 1262 1264 1303 
1661 1301 1299 1701 1305 1268 1666 1307 1271 
1272 1670 1311 1669 1274 1276 1713 1673 1674 
1277 1244 1278 1280 1319 1677 1283 1681 1288 
1685 1287 1289 1292 1686 1290 1291 1296 1693 
1733 1690 1295 1297 1300 1298 1304 1343 1741 
1345 1705 1308 1347 1312 1351 1710 1315 1316 
1714 1753 1355 1318 1284 1317 1320 1359 1323 
1328 1365 1725 1722 1765 1327 1326 1332 1367 
1330 1373 1333 1331 1336 1335 1340 1341 1338 
1339 1344 1781 1383 1738 1346 1745 1348 1746 
1385 1387 1352 1750 1391 1356 1395 1754 1357 
1324 1360 1757 1797 1362 1363 1368 1405 1805 
1762 1372 1407 1769 1766 1371 1376 1411 1770 
1773 1375 1380 1379 1382 1381 1384 1419 1423 
1386 1388 1427 1389 1392 1790 1793 1393 1396 
1435 1361 1399 1364 1398 1400 1439 1761 1798 
1403 1408 1845 1802 1412 1806 1447 1849 1416 
1451 1415 1420 1457 1814 1421 1424 1463 1459 
1822 1425 1426 1428 1826 1429 1430 1431 1432 
1471 1830 1433 1434 1436 1473 1873 1438 1404 
1477 1437 1440 1442 1443 1485 1448 1444 1842 
1452 1487 1450 1456 1491 1853 1850 1497 1454 
1455 1460 1462 1458 1464 1466 1467 1468 1905 
1469 1470 1472 1511 1474 1475 1476 1515 1479 
1480 1519 1481 1878 1483 1488 1484 1486 1489 
1492 1889 1490 1493 1496 1893 1495 1500 1541 
1499 1503 1504 1543 1898 1507 1508 1547 1512 
1949 1551 1910 1516 1555 1517 1518 1520 1557 
1559 1918 1525 1522 1523 1528 1922 1527 1532 
1929 1531 1933 1536 1930 1535 1537 1540 1581 
1539 1544 1942 1583 1938 1546 1548 1946 1587 
1550 1589 1552 1591 1950 1989 1554 1556 1593 
1953 1524 1558 1560 1599 1563 1568 1564 1566 
1207 1567 1572 1966 1609 1969 1211 1571 1576 
1973 1970 1575 1580 1974 1617 1579 1221 1219 
1981 1584 1982 1621 1625 1588 1986 1231 1590 
1592 1629 1235 1595 1594 1596 1994 1993 1598 
1237 1239 1597 1600 1602 1608 1641 1645 1643 
2002 1649 1612 2006 1607 2009 1616 2010 2053 
1611 1620 1655 1615 2017 2014 1618 1624 2022 
1659 1619 2061 2018 2021 1628 1627 2026 1630 
1632 2030 1634 1636 2034 1638 1601 1637 1604 
1640 2038 2041 1648 1644 2042 1646 1647 1652 
2049 1651 1656 2050 2093 1657 1660 2097 1663 
1658 1662 1664 1699 1703 1667 1668 2066 1707 
1709 1671 1672 2070 1711 2109 1675 1676 1715 
2074 1678 1679 1680 1719 2078 1682 1683 1688 
1684 1687 1692 1729 2086 1691 1696 2090 2133 
1697 1694 1737 1695 1700 1735 1702 1698 1704 
1743 2098 2141 1706 1708 2106 2105 2145 1712 
1751 1716 1755 1717 1718 1720 1759 1723 1728 
2122 1726 1727 1732 2129 2126 1730 1731 1736 
1771 1734 1740 2134 2137 1739 1742 1744 2138 
1783 2142 1747 1748 2146 1785 2185 1749 1789 
1752 1791 2150 1756 1795 1721 1758 1724 1760 
1799 2197 2165 1763 1768 2162 1803 1767 1772 
2209 1809 2169 2166 2173 1776 2170 1777 2177 
1774 1775 1780 2174 1778 1782 1779 1821 1784 
1819 2178 2181 1786 1787 1788 2186 1829 2189 
1792 2190 1794 1833 1796 1835 2194 1764 1800 
1837 1839 2201 1801 1808 2245 1804 2202 1807 
1812 1847 2206 2249 1813 1810 1811 1816 1817 
1815 1820 1861 1823 1818 1824 1825 1827 1828 
1865 1831 1832 1869 1871 1834 1836 1875 1838 
1840 2238 1881 1843 1848 1883 1844 1885 2281 
1846 1852 1887 2246 1851 1856 2253 1857 1854 
1855 1860 1862 1863 1858 1859 1864 1901 1866 
1867 1868 1870 1872 1911 2270 1913 1874 1876 
2313 2273 1877 1841 1879 1880 1882 1888 2282 
1884 1921 1886 1892 1891 1890 1896 1897 1895 
1894 1900 1935 2294 1902 1899 1903 1904 1941 
1943 2298 1906 1907 1908 1947 1909 1912 2349 
2310 1914 1915 1916 2353 1917 1957 1919 1920 
2318 1925 1923 1928 1963 2322 1926 1927 1932 
2326 1931 1936 2330 1937 1934 1977 1940 1975 
2334 1939 1944 2338 2341 2342 1945 1948 2345 
2346 1951 1952 1991 2389 1954 1955 1956 1995 
1959 1924 1958 1960 1997 1965 1605 2005 1961 
1603 1962 1968 2362 1964 1967 1972 2366 1971 
1976 2370 1980 2377 2374 1978 1979 1983 1984 
2382 2381 2378 1985 2385 1623 1987 1988 2025 
2386 1631 1990 1992 2029 2390 1635 1996 1639 
1998 1999 2000 2001 2004 2008 2003 2012 2047 
2007 2409 2013 2016 2410 2011 2413 2020 2057 
2019 2023 2024 2063 2418 2422 2421 2028 2065 
2067 2425 2032 2071 2429 2430 2031 2033 2036 
2073 2075 2035 2040 2037 2079 2039 2045 2445 
2043 2048 2044 2083 2481 2046 2052 2051 2056 
2450 2091 2055 2054 2060 2457 2059 2058 2062 
2064 2101 2461 2458 2068 2462 2505 2069 2072 
2470 2111 2113 2076 2115 2513 2474 2077 2117 
2080 2119 2478 2085 2082 2088 2084 2525 2485 
2089 2087 2092 2127 2096 2131 2493 2094 2095 
2100 2494 2497 2102 2099 2103 2501 2104 2498 
2139 2502 2107 2108 2506 2110 2509 2112 2151 
2149 2114 2116 2155 2081 2118 2121 2120 2157 
2518 2123 2125 2128 2522 2561 2163 2565 2132 
2526 2130 2136 2530 2135 2140 2175 2537 2143 
2144 2179 2538 2147 2148 2546 2187 2152 2191 
2550 2549 2153 2154 2156 2158 2159 2124 2160 
2199 2161 2168 2164 2605 2167 2172 2207 2566 
2609 2171 2573 2176 2570 2577 2180 2574 2221 
2182 2183 2184 2621 2219 2581 2578 2225 2188 
2227 2229 2192 2231 2193 2195 2196 2233 2235 
2633 2198 2200 2239 2237 2637 2601 2205 2203 
2208 2243 2602 2212 2247 2210 2213 2211 2216 
2251 2217 2257 2215 2214 2220 2255 2218 2222 
2223 2224 2622 2226 2228 2267 2626 2265 2230 
2232 2629 2269 2271 2234 2236 2241 2204 2240 
2277 2677 2242 2248 2244 2252 2287 2646 2250 
2293 2256 2291 2653 2254 2260 2697 2261 2258 
2301 2259 2264 2263 2299 2658 2662 2262 2266 
2268 2272 2670 2311 2274 2275 2276 2713 2315 
2674 2279 2278 2280 2678 2317 2319 2283 2285 
2288 2323 2682 2329 2286 2289 2292 2689 2290 
2296 2331 2297 2295 2300 2335 2694 2737 2303 
2302 2304 2702 2698 2741 2306 2305 2308 2307 
2347 2745 2706 2309 2312 2710 2351 2314 2316 
2355 2753 2284 2357 2320 2359 2721 2325 2321 
2365 2328 2324 2327 2332 2333 2336 2371 2337 
2340 2375 2777 2343 2339 2344 2738 2742 2383 
2348 2350 2352 2391 2750 2354 2356 2754 2395 
2358 2360 2397 2399 2363 2368 2765 2367 2369 
2372 2373 2376 2773 2770 2015 2380 2774 2379 
2384 2781 2778 2782 2387 2027 2388 2785 2786 
2789 2392 2790 2393 2793 2394 2396 2433 2364 
2361 2398 2400 2402 2405 2408 2443 2404 2403 
2406 2412 2416 2411 2813 2451 2810 2414 2420 
2417 2814 2817 2424 2818 2423 2861 2426 2428 
2467 2826 2865 2427 2469 2432 2830 2434 2473 
2436 2475 2873 2833 2438 2401 2440 2838 2442 
2448 2842 2441 2444 2449 2447 2446 2452 2453 
2456 2454 2455 2460 2495 2857 2459 2463 2464 
2862 2465 2466 2468 2866 2905 2507 2471 2472 
2511 2870 2476 2515 2477 2479 2480 2517 2519 
2881 2482 2483 2488 2882 2489 2529 2487 2486 
2492 2527 2490 2491 2496 2531 2890 2500 2897 
2541 2499 2503 2504 2539 2543 2941 2901 2902 
2898 2545 2508 2906 2945 2547 2510 2909 2512 
2551 2514 2913 2516 2914 2555 2953 2557 2484 
2520 2521 2523 2528 2524 2925 2922 2569 2532 
2567 2926 2533 2536 2933 2535 2534 2540 2575 
2934 2542 2544 2579 2981 2942 2585 2548 2587 
2589 2552 2591 2553 2554 2556 2595 2558 2559 
2560 2597 2599 2563 2562 2568 2564 2603 2965 
2962 2572 2607 2966 2571 2576 2613 3013 2611 
2617 2580 2615 2974 2582 2583 2584 2978 2982 
2619 3021 2623 2586 2588 2985 2627 2590 2592 
2631 3029 2593 2594 2596 2635 2598 2600 2639 
3001 2608 2643 2606 2649 2612 2647 3049 3006 
2610 2616 2651 3010 2614 2657 2620 2655 2618 
2661 2624 3022 2659 3018 3061 2625 2665 2628 
3026 2667 2630 2669 2632 2671 2673 2634 2636 
3034 3033 3073 2604 2638 2640 2641 2645 2642 
2648 2685 2683 2681 2652 2650 2656 2691 3050 
3053 2654 2660 2695 3054 3097 2701 2663 2664 
2699 3062 3101 2666 2668 3065 3066 2705 2672 
3070 2675 2676 2715 3074 2717 2679 2644 2680 
2719 2688 2684 2725 2723 3121 2686 2687 2692 
2690 3093 2693 2696 2733 2731 2700 3094 3137 
2703 2704 2743 3098 3102 2707 2708 3145 2709 
2711 2712 2714 2716 2755 2718 2720 2759 2722 
2728 2724 2729 2726 2727 2732 3126 2767 3169 
2730 2736 3173 2771 2734 2735 2740 2739 2744 
2779 3138 2783 2747 2746 2748 3146 2749 2751 
2752 3149 3150 3189 3153 2756 3154 2757 2758 
2760 2797 3158 2763 2762 2768 2764 2407 2769 
2766 2772 3166 2809 2776 3170 2415 2775 2780 
3174 2419 2784 3182 3178 3181 3185 2787 2788 
3186 2829 2791 2431 2792 3190 2794 2435 2795 
2796 2437 2798 2439 2761 2799 2800 2802 2801 
2808 2803 2841 3202 3245 2806 2849 2812 2847 
2816 3210 2851 2820 2815 3214 2822 2821 2824 
3221 2819 2823 3222 3218 2825 2828 3226 3265 
3225 2867 2832 3269 2869 2871 2834 2836 2875 
2835 2804 2840 2837 3237 2843 2845 2848 2844 
2846 2852 3249 2853 2850 2856 2891 3250 3293 
2855 2854 2860 2858 2859 2863 2864 2868 2907 
3266 2872 3270 3309 2911 2874 2876 2915 3274 
3313 2877 2879 2878 2880 2917 2885 2921 3285 
2883 2888 2889 2886 2887 2892 3286 3329 2893 
2896 2894 2895 2900 3297 3298 3301 2903 2899 
2904 3302 2939 2943 3341 2908 2947 3306 2910 
2949 2912 2916 3353 2955 3314 2918 2919 3317 
2884 2920 2957 3357 2923 2928 2929 2927 2932 
2969 3326 3369 2931 2930 2936 3330 2977 2937 
2935 2940 3337 2975 3377 2938 2944 3338 2979 
2946 2948 2987 3346 2950 2989 2951 2952 2991 
2993 2954 2956 2995 2959 2924 2958 2960 2961 
2997 2963 2968 2964 3003 3365 3362 3009 2967 
2972 3007 2973 2971 2970 2976 3011 3017 2980 
2983 2984 3381 3019 3023 3382 2986 3025 2988 
3027 3425 2990 3389 2992 3031 3390 3429 2994 
2996 2999 2998 3000 3039 3045 3005 3002 3008 
3041 3004 3043 3012 3016 3051 3410 3014 3015 
3020 3414 3055 3417 3421 3024 3422 3418 3063 
3028 3426 3030 3032 3071 3430 3035 3036 3434 
3037 3077 3038 3040 3079 3085 3042 3048 3083 
3449 3046 3047 3052 3089 3056 3057 3060 3454 
3059 3058 3064 3099 3458 3462 3461 3067 3068 
3466 3105 3107 3465 3069 3469 3072 3470 3109 
3075 3076 3115 3078 3044 3080 3081 3119 3481 
3082 3088 3123 3521 3125 3525 3086 3087 3092 
3127 3090 3091 3096 3490 3131 3533 3493 3095 
3100 3497 3103 3104 3139 3141 3501 3498 3502 
3106 3108 3147 3110 3111 3112 3510 3549 3113 
3114 3116 3155 3117 3118 3084 3120 3157 3161 
3122 3128 3163 3522 3165 3561 3129 3132 3130 
3133 3136 3573 3530 3134 3135 3177 3140 3534 
3142 3143 3144 3179 3542 3581 3148 3187 3585 
3546 3151 3152 3193 3156 3554 3159 3124 3160 
3558 3199 2805 3565 3162 3168 3167 2807 3172 
3171 2811 3176 3175 3180 3574 3217 3183 3184 
3578 3582 2827 3188 3586 3191 2831 3192 3229 
3195 3194 3196 3593 3197 3201 2839 3164 3198 
3200 3598 3205 3208 3204 3209 3206 3212 3609 
3649 3216 3251 3253 3653 3610 3613 3213 3211 
3220 3614 3657 3215 3617 3261 3224 3263 3223 
3618 3622 3228 3267 3227 3665 3230 3232 3271 
3231 3234 3273 3236 3634 3673 3633 3238 3277 
3240 3279 3638 3243 3242 3248 3685 3283 3246 
3247 3252 3689 3256 3291 3693 3254 3257 3255 
3260 3697 3295 3258 3262 3259 3264 3658 3662 
3299 3268 3305 3272 3670 3709 3311 3275 3276 
3315 3713 3674 3278 3241 3244 3280 3677 3282 
3281 3288 3284 3289 3287 3292 3327 3290 3296 
3331 3690 3733 3294 3300 3335 3303 3304 3343 
3339 3698 3345 3307 3308 3347 3706 3310 3312 
3351 3316 3355 3753 3714 3319 3321 3318 3320 
3359 3717 3325 3323 3322 3328 3363 3332 3367 
3726 3769 3333 3336 3730 3334 3340 3375 3734 
3777 3342 3344 3742 3781 3383 3738 3379 3741 
3348 3746 3349 3350 3352 3750 3393 3354 3356 
3395 3754 3358 3324 3360 3397 3761 3368 3805 
3361 3364 3366 3372 3766 3413 3373 3371 3370 
3376 3773 3813 3770 3374 3380 3378 3384 3778 
3385 3386 3387 3388 3786 3427 3391 3789 3392 
3790 3433 3394 3396 3399 3401 3398 3400 3403 
3405 3402 3408 3443 3445 3802 3409 3407 3406 
3412 3849 3453 3411 3416 3451 3810 3817 3415 
3420 3814 3419 3423 3424 3459 3818 3822 3428 
3431 3432 3830 3471 3829 3869 3435 3436 3873 
3833 3438 3441 3437 3404 3439 3440 3442 3448 
3485 3881 3446 3447 3452 3489 3846 3450 3456 
3491 3457 3455 3857 3460 3897 3861 3463 3464 
3862 3503 3858 3467 3468 3507 3866 3509 3472 
3473 3474 3475 3476 3477 3478 3479 3444 3480 
3517 3878 3917 3483 3482 3488 3523 3885 3529 
3487 3486 3492 3886 3496 3494 3495 3500 3937 
3894 3499 3504 3902 3901 3505 3506 3508 3547 
3905 3511 3512 3949 3910 3514 3553 3513 3515 
3516 3555 3519 3484 3518 3520 3559 3528 3524 
3965 3526 3527 3532 3567 3926 3531 3933 3536 
3537 3535 3540 3934 3541 3538 3539 3543 3544 
3579 3583 3545 3548 3946 3945 3550 3551 3552 
3950 3556 3954 3557 3957 3560 3599 3562 3203 
3563 3568 3564 3962 3569 3566 3207 3572 3570 
3571 3576 3970 3577 3575 3580 3219 3584 3978 
3981 3621 3587 3588 3625 3589 3590 3591 3592 
3990 3233 3235 3595 3594 3596 3597 3239 3637 
3600 5 3602 3608 3603 3643 3606 3612 3647 
3607 10 3616 3651 14 3620 3655 18 3624 
3659 3619 3623 26 65 3626 3628 3627 3630 
3669 69 3632 3671 34 73 3636 3675 3604 
38 3640 3679 3645 3641 3642 3648 3683 3646 
3652 3687 3650 53 50 3656 3654 54 3660 
3695 3661 58 3663 3664 3699 3666 3705 3667 
66 3668 3707 70 3672 3711 74 3676 3678 
41 77 3644 3680 3682 3688 121 3684 3725 
3723 3686 3729 86 3692 3691 3696 133 3731 
3737 3694 3700 3735 3701 3702 102 3703 141 
3704 3739 105 3708 3747 110 3710 3749 109 
3712 3715 114 3716 3755 118 3718 3681 3719 
3720 3757 3721 3722 3728 3724 3765 129 3727 
3732 130 3736 137 177 3740 3775 3743 142 
3744 3779 3745 3785 146 3748 3787 150 149 
3751 3752 153 3793 3756 158 197 3759 3758 
3760 3799 3797 165 161 3762 3763 3768 3764 
3803 169 3767 166 3772 3809 173 3771 3776 
3774 174 3780 3815 217 181 182 3782 3783 
3784 3823 3788 189 3791 3792 3794 3795 3796 
3835 3798 3800 3801 3808 3843 3806 3807 3812 
3847 210 3853 3811 3816 3851 257 214 3820 
3855 3821 221 218 3819 3824 261 3859 3825 
3827 3826 3828 3831 3832 233 3834 3836 3875 
3837 3804 3838 3839 3840 3842 3845 3848 3841 
3844 246 3889 3852 3887 3850 3856 3893 3854 
254 3860 3895 301 258 262 3863 3864 3899 
3865 3867 3868 270 3870 3871 3872 3911 3909 
3913 3874 3876 317 3877 3879 3880 3919 3882 
3883 3888 3925 3884 3929 3892 3927 290 3890 
3891 3896 3931 297 294 3900 3935 3939 302 
341 3898 298 3903 3904 345 3906 305 3907 
3908 310 3912 314 3915 3914 3916 3955 318 
3918 3920 3959 3922 3923 3928 3963 3969 3932 
3967 330 333 3930 3936 3971 377 3940 3975 
342 338 3938 3942 3943 3941 3944 3983 346 
3985 3947 3948 3987 385 3951 3952 353 3953 
3956 3993 3958 3961 3921 3924 3960 3605 3601 
3968 3964 366 9 3966 3972 3973 3611 3976 
3977 3974 17 3615 3980 21 382 3982 378 
3979 3984 25 386 3986 3988 29 3989 3991 
3631 3629 3992 3994 3995 3635 3996 37 3998 
3639 3999 3997 4000 
type 1 4000 int
1 1 1 1 1 1 1 1 1 
1 1 1 1 1 1 1 1 1 
1 1 1 1 1 1 1 1 1 
1 1 1 1 1 1 1 1 1 
1 1 1 1 1 1 1 1 1 
1 1 1 1 1 1 1 1 1 
1 1 1 1 1 1 1 1 1 
1 1 1 1 1 1 1 1 1 
1 1 1 1 1 1 1 1 1 
1 1 1 1 1 1 1 1 1 
1 1 1 1 1 1 1 1 1 
1 1 1 1 1 1 1 1 1 
1 1 1 1 1 1 1 1 1 
1 1 1 1 1 1 1 1 1 
1 1 1 1 1 1 1 1 1 
1 1 1 1 1 1 1 1 1 
1 1 1 1 1 1 1 1 1 
1 1 1 1 1 1 1 1 1 
1 1 1 1 1 1 1 1 1 
1 1 1 1 1 1 1 1 1 
1 1 1 1 1 1 1 1 1 
1 1 1 1 1 1 1 1 1 
1 1 1 1 1 1 1 1 1 
1 1 1 1 1 1 1 1 1 
1 1 1 1 1 1 1 1 1 
1 1 1 1 1 1 1 1 1 
1 1 1 1 1 1 1 1 1 
1 1 1 1 1 1 1 1 1 
1 1 1 1 1 1 1 1 1 
1 1 1 1 1 1 1 1 1 
1 1 1 1 1 1 1 1 1 