# vtk DataFile Version 4.0
Generated by LAMMPS
ASCII
DATASET POLYDATA
POINTS 4000 float
1.35712 1.33776 1.40485 5.06197 1.41178 1.54562 3.29316 1.6379 -0.715385 
9.04839 1.66715 1.4072 8.75116 -0.831363 3.51523 9.10158 3.63829 3.61785 
6.91109 1.40126 -0.48383 12.5915 1.39608 1.34817 10.7695 1.38065 3.55029 
12.6661 -0.511541 3.38123 12.7416 3.59414 3.60798 10.7475 1.21643 -0.810132 
16.4651 1.54523 1.49902 16.6947 3.72815 3.50577 16.5713 -0.691217 3.69187 
20.2394 1.42657 1.50005 18.4898 1.51859 3.74453 22.3274 -0.57146 1.42282 
18.2905 1.37026 -0.764526 20.2172 -0.699895 -0.712146 18.3977 3.55358 1.44665 
24.0348 1.42705 1.43902 24.2256 -0.673912 -0.862675 25.9512 1.43735 3.47562 
24.0437 -0.725258 3.5998 27.9773 1.4073 1.51987 29.8146 1.2903 -0.597144 
27.9548 -0.813399 -0.592231 29.7569 -0.776191 1.70294 31.7559 1.39269 1.49715 
33.5016 3.58412 1.62045 33.523 1.39148 -0.6465 33.6434 -0.698395 1.5579 
33.7692 1.38337 3.61772 31.5072 3.46969 3.6526 35.492 1.35001 1.34262 
35.5697 -0.581315 -0.686583 37.3823 1.34437 3.60293 3.13631 3.47395 1.54012 
5.012 5.54129 1.52715 1.13605 5.59171 1.53709 1.17161 3.39499 3.6571 
7.18394 3.56464 1.54949 8.85301 5.81305 1.34175 7.07265 5.7529 3.57916 
6.92273 7.79629 1.37742 10.7902 3.51199 1.35488 12.7276 5.67278 1.56937 
10.8001 5.53197 3.46399 14.599 3.50252 1.54881 16.5362 5.62053 1.51866 
14.6862 5.65859 3.47211 14.7287 7.84474 1.56189 16.5786 7.76208 3.55293 
22.2043 3.48397 1.26832 20.3799 5.57043 1.43563 18.4338 7.67077 1.52697 
25.9982 3.45509 1.65615 24.1646 5.54481 1.36503 25.9571 7.73741 1.21018 
25.964 5.37295 3.68057 29.8117 3.42057 1.50025 27.8927 5.56308 1.55112 
29.9069 7.74065 1.25538 29.8498 5.53488 3.6293 31.5779 5.46195 1.32658 
33.6361 7.53647 1.50459 31.6023 7.61663 3.37983 33.5467 5.48334 3.49242 
37.5188 3.37584 1.43544 35.6584 5.67882 1.64858 37.4914 7.81369 1.52727 
37.3777 5.49334 -0.600012 3.2207 7.69489 1.47718 5.07038 7.65611 3.5888 
4.94148 9.80049 1.60506 3.06355 9.75552 3.55482 1.27728 12.0287 3.51547 
8.95686 7.59819 3.35591 8.90547 9.75897 1.4878 10.9622 7.82247 1.57723 
12.7873 7.73241 3.74309 12.8193 10.004 1.50517 10.8215 9.85154 3.57619 
10.7259 11.8784 1.42974 16.4427 9.7798 1.46987 14.6213 9.99682 3.63301 
16.4378 12.154 3.60448 22.3839 7.69982 1.46023 20.3247 9.69347 1.311 
22.3182 11.6851 1.43888 20.3372 11.912 3.38952 22.2704 9.58488 3.50174 
18.3419 9.69738 -0.750259 24.2124 9.77477 1.43828 25.8825 11.9 1.61154 
24.275 7.58591 3.52084 26.1663 9.81423 3.30746 23.9871 11.8364 3.59999 
29.8232 9.91611 -0.827735 27.9347 9.6492 1.34455 29.9011 11.8126 1.37933 
27.8983 11.8368 3.60931 31.7025 9.80335 1.26909 33.4251 11.8994 1.48472 
33.6138 9.56361 3.50151 31.6227 11.6143 3.48948 39.3005 9.81805 1.44667 
35.471 7.60806 3.58839 35.4375 9.94916 1.43693 37.4706 9.85382 3.73546 
35.4602 11.9005 3.5046 37.4252 9.86919 -0.734515 37.3009 11.773 1.46714 
35.4425 11.8108 -0.736193 5.03757 11.6569 3.5492 3.09031 11.8504 1.51835 
5.24552 13.92 1.44857 3.10542 15.9344 1.39794 3.27529 13.928 3.5496 
5.11658 16.0905 -0.520617 6.94727 11.7452 1.62596 8.81704 14.002 1.63136 
7.00327 16.1669 1.33388 7.05282 13.8625 3.72306 8.87627 16.1662 -0.687822 
12.7211 14.1126 1.40016 12.6606 16.2044 -0.62794 14.7862 11.9361 1.42706 
16.5891 11.8507 -0.754513 16.5788 13.9568 1.51713 14.5027 13.9728 -0.820078 
18.516 11.7737 1.38853 20.2786 13.942 1.40609 18.4382 16.1251 1.32094 
22.0213 13.9759 3.4289 22.1471 16.0065 1.5519 24.024 14.017 1.58137 
25.8515 16.2278 1.51127 24.0682 16.0464 -0.548124 27.9044 13.806 1.50166 
29.7159 16.1707 1.4644 29.5869 13.9702 -0.680801 31.5886 14.1784 1.33608 
33.5407 15.953 1.56623 39.1636 13.9879 1.46043 35.2691 13.8601 1.39265 
39.0844 16.0667 -0.586074 37.2516 13.9988 -0.700592 37.2741 15.9658 1.63679 
35.1667 16.0003 -0.554022 5.0256 18.2479 1.4493 3.40244 20.2617 1.29065 
1.22926 15.8305 3.5747 8.7742 18.2177 1.37912 10.6433 16.1194 1.18887 
12.7071 16.2625 3.67465 12.762 18.2918 1.39306 10.7993 18.1781 3.38438 
10.6228 20.4171 1.25839 14.5953 16.0852 1.50957 16.5109 18.297 1.42979 
14.6276 18.1548 3.56113 16.4362 16.011 -0.575472 14.8396 20.4194 1.44915 
16.5819 16.084 3.57256 20.281 18.2312 1.35639 20.2014 16.077 3.51953 
20.1097 16.1778 -0.768711 22.1905 18.1741 -0.679205 24.1758 18.2741 1.68494 
26.0063 20.3666 1.56977 23.9319 20.3796 3.70352 25.889 18.147 -0.428358 
27.6981 18.2666 1.49441 29.6735 20.3837 1.41247 27.7901 16.0504 -0.518802 
29.6546 18.0721 -0.668281 31.5734 18.0245 1.43928 33.4239 18.1252 -0.537848 
33.6254 20.23 1.48434 33.5943 17.9778 3.57189 39.2127 18.1342 1.52598 
35.4258 18.1154 1.47078 37.3559 18.0965 3.66507 37.4455 20.203 1.5296 
35.4459 20.1863 3.69218 35.4465 20.1885 -0.612758 5.19427 22.2824 1.50798 
1.15021 22.3268 1.54691 3.351 24.4589 1.48252 6.9913 20.2008 1.40133 
8.83476 20.2091 3.54336 8.90956 20.2318 -0.781002 8.89707 22.4628 1.42547 
6.84094 24.4475 1.38906 8.98989 24.5583 -0.574531 12.6117 20.2497 3.49333 
12.5715 22.3583 1.45942 10.786 22.3087 3.51372 10.7825 22.26 -0.892263 
10.734 24.5271 1.47696 16.3842 22.5741 1.35784 16.6351 20.3808 3.42571 
14.513 22.2371 3.46249 18.3717 20.4445 1.4 22.2354 20.2054 1.47323 
20.1638 22.2864 1.41662 21.9843 22.4667 3.55754 18.2741 24.565 1.54144 
20.3004 20.2737 3.62195 18.2972 22.4172 3.74586 24.0566 22.3306 1.51627 
25.8148 22.2897 3.70821 24.1391 20.1633 -0.606863 25.8184 22.5124 -0.507705 
27.7124 20.1123 -0.625859 27.6324 22.4664 1.43627 31.5886 22.3391 1.48418 
33.6033 22.2238 3.4835 33.5584 24.1671 1.52736 31.5765 20.115 -0.509783 
31.6968 24.2622 -0.706658 35.588 22.2697 1.46641 37.4133 22.2746 3.59522 
37.2561 24.4901 1.41904 37.4108 22.2053 -0.591889 5.03221 24.2991 -0.648775 
4.87308 26.6484 1.60531 3.06456 26.4204 3.68285 3.07412 26.6405 -0.665896 
1.08822 26.466 1.63189 8.78333 26.2855 1.43777 7.15258 28.7016 1.45413 
6.96989 26.3565 3.47402 6.85317 26.5306 -0.528533 10.9169 26.4559 -0.738745 
12.5953 26.6429 1.4661 10.7518 26.4576 3.57365 10.6814 28.6714 1.43841 
12.7685 28.7737 -0.623392 14.4026 24.4293 1.53803 16.568 26.5918 1.28162 
16.355 28.6971 3.58553 16.4578 24.5457 -0.723219 22.0641 24.4975 1.55438 
20.0753 26.6719 1.54921 20.1866 24.493 3.60544 21.9308 26.5307 3.71715 
25.8697 24.5612 1.58044 24.1282 26.6239 1.61903 26.0425 26.7361 3.59826 
25.9167 26.4593 -0.577441 23.9323 24.528 3.54613 29.751 24.5495 1.42382 
27.6672 24.4218 -0.464413 27.8821 26.5595 1.44821 29.8289 26.4754 -0.588379 
29.6753 28.721 1.63451 27.7896 24.5771 3.55217 31.4624 26.5408 1.63377 
33.324 26.423 -0.459481 35.2876 26.3908 1.44645 37.2358 26.3474 3.62865 
37.1679 28.6096 1.52703 39.2414 24.334 -0.506007 37.4132 26.4804 -0.46656 
2.98397 28.696 1.5241 5.06342 28.6348 -0.577073 4.95236 30.6288 1.42809 
3.36395 32.649 1.39735 3.0608 30.7159 -0.644613 8.92212 28.5272 -0.590976 
8.89893 30.7592 1.54322 6.92297 32.7948 1.54209 6.91831 30.6715 3.71539 
12.6062 30.8382 1.49456 10.7012 30.7283 3.48093 10.7342 30.7415 -0.734626 
14.6616 28.525 1.41507 16.4562 30.9912 1.4951 16.3261 28.4825 -0.777949 
18.2612 28.6998 1.36533 20.1389 28.5902 3.59231 20.1561 28.6683 -0.684828 
22.2925 28.5678 1.42177 20.2183 30.6783 1.5301 18.3903 32.8675 1.42332 
22.1637 30.7357 -0.436848 21.9294 32.7633 1.52475 26.002 28.5141 1.46656 
24.1306 30.5829 1.53308 25.8936 30.7666 -0.605093 28.0239 30.638 1.61468 
29.6652 30.6089 3.88838 29.7757 30.5511 -0.59165 33.628 28.5626 1.47057 
31.6049 30.6815 1.57506 33.2976 30.6891 -0.522129 33.5633 30.5969 3.68279 
31.6607 28.5812 -0.476582 39.2089 30.6835 1.36417 35.3397 30.7146 1.39656 
39.1462 28.5842 -0.688803 37.3498 30.5367 -0.70335 35.4179 28.4375 -0.610027 
35.5007 32.6334 -0.567712 5.11013 34.7282 1.57472 3.135 34.7547 -0.630738 
3.1204 36.9165 1.54854 8.90125 34.8139 1.61667 6.84655 36.9398 1.3942 
8.93242 36.9968 -0.700016 10.949 32.8996 1.49099 12.5909 35.0142 1.48615 
10.9072 34.9582 3.74639 10.7558 34.9137 -0.590864 12.5906 37.0703 3.62304 
14.5324 33.0273 1.63063 16.5292 35.2454 1.57801 16.312 32.8747 -0.579233 
16.4857 37.17 3.64069 20.1609 32.656 -0.740515 20.2848 34.7541 1.43977 
18.2678 34.9403 3.83203 22.2547 34.7678 -0.642946 18.2667 34.7398 -0.532095 
25.8843 32.6846 1.61396 24.0731 34.6652 1.4666 26.1108 34.977 -0.59191 
24.0881 32.7045 -0.497181 29.7598 32.6917 1.69853 27.898 34.9365 1.61444 
27.8941 32.7955 -0.459289 29.6341 34.7801 -0.558558 33.5985 32.7107 1.45593 
31.7192 34.8713 1.50494 31.5862 32.842 -0.583877 31.6878 36.9864 -0.627832 
39.3563 34.884 1.52916 37.4448 32.7732 1.46529 35.4211 34.7954 1.47818 
37.3132 36.9496 1.49902 5.02455 41.177 -0.535342 2.99029 40.9176 1.54845 
4.95132 39.0511 1.36374 1.12361 38.9468 1.3717 1.19184 36.8074 -0.668118 
1.12928 41.2656 3.72465 5.10606 36.8093 3.75802 6.92687 40.9962 1.4528 
8.89983 38.9173 1.49322 6.83642 38.9546 -0.521348 8.79213 41.1528 -0.6125 
10.613 41.148 1.3712 10.6619 36.8466 1.49453 12.4988 39.0008 1.6179 
14.7371 41.1645 1.32603 14.3797 37.0687 1.50972 16.6494 38.895 1.5386 
14.505 39.0571 3.42206 18.2655 41.1446 1.5453 18.6844 36.8373 1.50593 
22.0378 36.8668 1.52372 20.352 39.2431 1.39481 18.4908 39.0499 3.80672 
22.174 39.0247 -0.754222 26.0084 41.1576 1.47519 26.0008 36.9558 1.60645 
24.0928 39.1247 1.36351 25.9786 39.1041 -0.641067 29.8555 37.0104 1.7524 
27.8408 38.9695 1.55981 27.9618 37.0838 -0.499777 29.9307 38.9968 -0.633123 
33.593 36.8488 1.42548 31.8309 38.9909 1.47842 33.5882 38.8824 3.66868 
33.6129 39.1486 -0.744753 37.289 41.0895 1.46654 35.593 38.8967 1.57886 
35.5428 36.8949 3.5584 37.4136 39.1212 3.59489 37.2137 39.0283 -0.662915 
3.15034 1.30082 3.52344 5.11996 1.4449 5.62742 3.15217 1.53824 7.82069 
5.06612 3.52713 3.55039 3.13938 3.55284 5.80159 5.16641 3.53113 7.66713 
3.15067 -0.6936 5.74496 7.19249 1.41759 3.3597 8.74985 1.45795 5.71594 
6.9036 1.44856 7.79503 7.0726 -0.664373 5.74775 12.907 1.46177 5.45396 
11.0013 1.51406 7.68768 12.6018 -0.713832 7.74669 14.772 1.53385 3.45445 
16.5789 1.45503 5.58949 14.5646 1.46102 7.74785 20.2673 3.54211 3.53246 
[...]
POINT_DATA 4000
FIELD FieldData 6
id 1 4000 int
4 8 2 12 409 449 6 16 410 
413 453 10 20 457 417 24 418 23 
18 21 59 28 25 426 425 32 30 
29 31 36 75 34 35 434 473 40 
37 438 43 48 44 441 47 52 446 
87 51 56 450 55 60 454 95 497 
63 64 99 67 68 107 466 71 72 
111 470 76 115 513 474 79 80 119 
78 83 485 88 482 521 489 92 91 
493 96 490 131 100 494 537 103 104 
143 541 502 98 108 147 505 506 545 
110 112 151 549 116 155 514 553 84 
517 120 518 557 118 159 157 525 123 
128 163 522 165 127 132 167 526 169 
136 173 135 137 140 134 139 144 179 
542 183 148 187 185 152 191 150 156 
195 124 160 161 158 199 197 168 203 
561 172 171 573 176 570 211 175 180 
574 177 215 577 184 581 181 182 188 
227 625 186 192 231 189 190 196 194 
235 594 164 200 598 239 637 237 208 
204 243 207 609 209 212 247 249 613 
216 610 210 251 220 617 614 219 223 
224 622 259 621 618 228 626 225 226 
229 232 236 634 275 233 273 240 638 
279 238 245 248 642 242 244 252 287 
646 246 250 256 650 291 293 255 260 
697 257 263 264 661 662 267 268 666 
266 665 271 269 272 270 311 669 276 
274 280 678 319 241 278 283 285 288 
323 282 289 292 327 686 296 690 290 
295 300 297 299 701 301 303 304 339 
302 343 307 308 306 312 710 310 315 
316 314 714 313 284 320 281 318 317 
357 328 322 363 332 367 369 331 336 
730 330 773 335 340 337 777 341 344 
738 342 338 347 348 346 345 351 352 
349 350 355 356 353 393 324 359 360 
399 5 3 368 364 361 401 765 7 
372 366 9 11 371 376 15 375 380 
774 19 379 383 384 778 382 27 387 
388 386 391 392 389 390 395 396 794 
394 39 400 797 798 398 402 408 802 
445 443 845 403 406 412 806 407 416 
810 813 414 420 814 461 422 424 818 
419 465 428 467 825 826 430 432 471 
469 431 436 435 404 440 838 837 442 
448 483 444 841 885 447 452 889 487 
846 451 456 893 455 460 854 897 458 
462 459 463 464 503 468 507 509 869 
472 511 870 475 476 913 478 479 481 
477 877 480 488 484 523 921 486 492 
527 491 496 495 500 535 894 501 498 
901 499 504 902 898 508 945 906 510 
909 512 910 515 516 555 914 519 917 
520 559 528 563 524 922 529 532 533 
530 531 933 536 534 540 539 543 538 
544 942 546 547 548 946 587 985 551 
550 589 552 591 989 949 554 556 595 
954 593 993 558 957 597 560 958 961 
565 562 605 568 603 1005 564 566 569 
567 572 607 973 571 576 1013 970 575 
580 615 977 974 578 582 579 583 981 
584 978 982 585 586 588 627 986 590 
592 990 1029 631 633 596 635 994 599 
601 600 998 1037 602 645 608 604 1002 
606 612 647 611 653 616 1010 1053 651 
620 1014 655 619 623 624 1022 659 628 
667 1065 1026 630 629 632 1030 1069 636 
1034 675 1073 639 677 640 1038 641 643 
648 683 1045 649 652 1089 656 1050 1093 
654 657 660 658 663 664 1061 1062 699 
703 1058 668 707 1066 709 671 670 672 
711 674 673 676 1074 1113 679 681 644 
680 1078 719 685 682 688 684 721 723 
687 689 692 729 727 693 691 696 1090 
694 695 700 702 741 698 704 705 706 
708 1106 712 713 715 716 718 717 720 
1117 759 1118 725 722 728 724 763 1161 
726 769 732 767 1129 733 731 736 771 
1173 737 734 735 740 775 742 739 743 
744 1141 1142 745 747 746 748 787 785 
749 750 751 752 1150 791 754 753 1153 
755 756 795 757 758 760 799 405 762 
768 761 764 1162 766 772 1166 1169 770 
411 776 1170 415 780 421 782 423 781 
783 779 784 786 427 788 1186 789 790 
429 792 1190 433 793 796 1193 437 439 
800 808 1202 804 803 801 843 849 809 
812 807 816 811 817 820 815 822 861 
824 819 821 828 827 830 832 1230 834 
836 875 833 840 839 842 844 848 883 
1242 1241 847 852 853 850 851 856 1250 
1293 855 857 860 858 862 859 863 864 
1258 865 866 867 1265 868 1266 905 907 
1305 871 872 911 873 874 1273 876 1274 
915 881 878 879 880 919 1277 1281 882 
888 884 1282 886 887 892 1286 890 891 
896 931 1290 895 900 1294 1337 903 899 
904 1302 1341 908 1306 1309 912 1310 1349 
953 916 955 918 920 1318 925 923 928 
924 926 929 927 932 967 930 936 1330 
1373 1333 937 934 935 940 941 938 939 
943 1338 944 947 1345 948 1346 951 950 
952 991 1353 956 995 959 960 999 1357 
1358 962 963 965 968 964 969 966 1009 
972 1409 1007 1369 971 976 1011 1370 975 
980 1374 979 983 984 1378 1023 1421 1025 
987 988 1027 1386 992 1390 1389 1429 1033 
996 1035 997 1000 1039 1001 1003 1008 1004 
1043 1445 1006 1049 1012 1406 1047 1016 1051 
1017 1015 1020 1055 1057 1018 1021 1019 1024 
1063 1059 1422 1028 1067 1031 1032 1071 1430 
1036 1075 1040 1438 1077 1085 1042 1048 1442 
1083 1046 1449 1052 1056 1054 1060 1497 1064 
1099 1103 1101 1462 1068 1466 1107 1070 1109 
1072 1111 1509 1076 1474 1115 1513 1079 1041 
1044 1441 1080 1082 1081 1088 1123 1086 1087 
1092 1486 1529 1091 1096 1533 1490 1094 1097 
1095 1100 1137 1098 1102 1104 1139 1105 1505 
1108 1506 1545 1149 1110 1112 1549 1114 1116 
1514 1155 1119 1084 1120 1159 1157 1121 1122 
1125 1124 1128 1126 1127 1132 1167 1130 1133 
1131 1136 1530 1135 1134 1140 1138 1143 1144 
1179 1541 1145 1146 1147 1148 1585 1189 1151 
1152 1550 1589 1154 1156 1195 1158 1160 1199 
1165 805 1163 1168 1164 1561 1172 1566 1569 
1171 1176 1174 1177 1175 1180 1217 1182 823 
1581 1178 1181 1183 1184 1582 1185 1187 1188 
829 831 1191 1192 1194 835 1196 1197 1198 
1200 1598 1205 1208 1204 1206 1209 1212 1207 
1606 1210 1253 1213 1216 1251 1211 1214 1220 
1614 1218 1222 1261 1224 1223 1226 1225 1228 
1227 1625 1269 1229 1232 1271 1234 1236 1233 
1235 1238 1237 1240 1239 1638 1245 1243 1248 
1283 1244 1642 1681 1249 1246 1247 1649 1252 
1256 1653 1254 1257 1255 1260 1295 1697 1259 
1263 1262 1264 1303 1661 1267 1268 1705 1666 
1270 1272 1670 1311 1313 1275 1276 1713 1278 
1279 1280 1678 1285 1288 1284 1685 1682 1287 
1289 1292 1327 1686 1291 1296 1331 1297 1300 
1694 1301 1298 1299 1304 1343 1702 1339 1741 
1307 1308 1347 1706 1709 1312 1351 1749 1314 
1315 1316 1714 1753 1317 1319 1717 1320 1359 
1323 1325 1321 1322 1328 1329 1326 1332 1726 
1336 1730 1371 1335 1334 1340 1734 1737 1342 
1344 1379 1781 1745 1348 1746 1350 1352 1750 
1354 1355 1356 1793 1395 1324 1360 1361 1399 
1362 1365 1363 1368 1403 1364 1366 1367 1372 
1407 1769 1376 1411 1770 1813 1377 1375 1380 
1817 1415 1382 1381 1383 1384 1419 1782 1385 
1425 1387 1388 1427 1825 1391 1789 1392 1431 
1790 1393 1394 1396 1794 1397 1398 1400 1439 
1401 1402 1405 1801 1408 1443 1404 1845 1412 
1806 1410 1413 1416 1810 1451 1414 1417 1420 
1461 1423 1418 1424 1463 1861 1426 1428 1467 
1469 1432 1829 1433 1435 1434 1436 1833 1477 
1437 1440 1479 1485 1448 1444 1483 1446 1489 
1447 1452 1846 1487 1450 1453 1456 1491 1454 
1457 1455 1460 1495 1897 1459 1458 1464 1862 
1501 1499 1503 1465 1468 1905 1470 1471 1472 
1909 1473 1475 1476 1515 1517 1877 1478 1480 
1519 1482 1481 1881 1488 1484 1882 1492 1493 
1496 1531 1933 1494 1500 1535 1498 1502 1504 
1902 1539 1543 1507 1508 1547 1945 1906 1511 
1510 1512 1553 1913 1516 1914 1518 1520 1917 
1525 1522 1523 1528 1524 1563 1526 1527 1532 
1926 1573 1536 1534 1537 1540 1575 1538 1542 
1544 1942 1579 1546 1548 1946 1949 1551 1552 
1591 1950 1554 1555 1556 1593 1595 1557 1521 
1559 1558 1560 1957 1597 1562 1565 1965 1601 
1203 1568 1605 1567 1572 1966 1571 1570 1576 
1613 1215 1577 1574 1580 1974 1578 1221 1219 
1981 1584 1982 1583 1978 1985 1586 1587 1588 
1231 1590 1592 1594 1596 1994 1201 1564 1599 
1600 1602 1608 2005 2001 1609 1612 2006 1607 
1610 1616 1651 2010 1657 1617 1620 1655 1615 
1618 1622 1621 1624 2022 1659 1663 1619 1626 
1665 1628 1667 1627 1630 1632 1671 2030 1634 
1636 1635 1673 2034 1637 1604 1640 2077 1639 
1677 2038 1641 1645 2045 1643 1648 1683 1646 
1647 1652 1650 1693 1656 1691 2053 2050 2093 
1654 1660 1658 2061 1662 1664 1701 1668 2066 
1669 2069 1672 2070 1674 1675 1676 1715 2113 
2041 1644 1679 1680 1688 1684 1723 1689 1687 
1692 1727 1733 1690 1696 1731 1695 1700 2094 
1735 1699 1703 1698 1739 1704 2102 1707 1708 
2106 1747 2105 1711 1710 2109 1712 2110 1716 
1755 2114 1718 1719 1720 1759 2081 2118 1725 
1721 1722 1728 2122 2165 1729 1732 1773 1736 
1771 2173 1777 1740 2134 2177 1738 1742 1743 
1744 2138 1783 1779 2145 1748 2146 1751 1752 
1791 2150 1754 1756 1757 1758 1724 1760 2158 
1805 1765 1762 1763 1768 2162 2205 1766 1767 
1772 1807 2209 1776 1811 2170 1774 1775 1780 
2174 2217 1778 1821 1784 1819 2178 2221 1786 
1785 1787 2185 1788 1827 2225 2189 1792 2190 
1795 1796 1761 1764 1797 1798 1799 1800 1802 
1803 1808 2245 1809 1849 1812 1847 1816 2210 
2213 1814 1857 1815 1820 1823 1818 1822 1824 
2218 1863 2222 1826 1828 1830 1831 1832 2230 
1834 1835 1836 1837 1838 1839 1804 1840 1842 
1843 1848 1883 2241 2242 1852 1889 1853 1850 
1851 1856 1854 1855 1860 1895 2257 1858 1859 
1864 2261 1899 2258 1866 1865 1867 1868 1907 
1869 1871 1870 1872 1911 2309 1873 1874 1875 
1876 2274 1915 1878 1841 1844 1879 1880 1885 
1925 1888 2282 1884 2325 1887 1886 1929 1892 
1927 1893 1891 1890 1896 1931 1937 1894 1900 
1935 2294 1901 1898 1903 1904 1908 2306 1947 
2305 1910 1912 2349 1953 1916 2313 1918 1919 
1920 2321 1959 1922 1923 1928 2365 1963 2322 
1932 2329 1930 1936 1973 1971 1934 1977 1940 
1941 1939 1943 1938 1944 2338 1948 2385 1989 
1951 1952 1991 2350 1954 1955 1956 1961 1921 
1924 1958 1960 1603 1962 1968 2362 1969 1967 
1972 2009 1970 1611 1976 2013 1975 1980 1623 
1979 1983 1984 2382 1986 1987 1988 1629 1631 
1990 1992 1633 1993 1995 1996 2033 2393 1997 
1998 1999 1964 2000 2002 2004 2008 2445 2043 
2003 2402 2405 2012 2047 2049 2406 2007 2409 
2016 2051 2410 2017 2014 2020 2015 2057 2018 
2021 2019 2023 2024 2059 2026 2025 2028 2426 
2032 2071 2429 2430 2036 2073 2075 2434 2473 
2040 2037 2438 2079 2477 2437 2042 2048 2442 
2449 2046 2052 2489 2056 2450 2055 2054 2060 
2457 2058 2063 2062 2064 2065 2067 2068 2072 
2470 2509 2111 2469 2074 2076 2115 2513 2117 
2044 2078 2080 2083 2085 2082 2088 2084 2481 
2089 2087 2086 2092 2129 2091 2090 2096 2490 
2131 2133 2097 2095 2100 2137 2101 2099 2103 
2501 2098 2104 2141 2498 2107 2108 2545 2506 
2112 2151 2510 2149 2153 2116 2155 2514 2119 
2121 2120 2157 2159 2557 2123 2125 2128 2525 
2522 2161 2126 2127 2132 2167 2130 2136 2171 
2530 2573 2135 2140 2577 2142 2139 2143 2144 
2542 2541 2147 2148 2546 2152 2589 2154 2156 
2193 2195 2593 2553 2197 2124 2160 2561 2163 
2168 2164 2605 2169 2166 2172 2207 2566 2176 
2211 2570 2175 2180 2215 2574 2181 2182 2183 
2179 2184 2223 2582 2186 2187 2188 2625 2585 
2586 2229 2191 2192 2231 2590 2194 2196 2233 
2199 2198 2200 2239 2202 2203 2208 2204 2243 
2602 2206 2249 2212 2247 2216 2251 2214 2220 
2614 2617 2621 2219 2224 2618 2661 2226 2227 
2228 2267 2626 2265 2232 2629 2630 2669 2235 
2234 2236 2201 2238 2237 2240 2641 2248 2244 
2283 2246 2252 2287 2250 2293 2253 2256 2291 
2650 2297 2255 2254 2260 2301 2259 2264 2263 
2299 2658 2662 2701 2303 2262 2266 2268 2269 
2270 2271 2272 2670 2273 2275 2276 2713 2277 
2279 2278 2280 2678 2717 2285 2281 2288 2284 
2286 2289 2292 2327 2686 2290 2296 2333 2690 
2295 2300 2335 2298 2302 2304 2343 2702 2341 
2698 2308 2307 2347 2745 2311 2310 2312 2710 
2749 2314 2353 2315 2316 2317 2318 2357 2319 
2320 2359 2323 2328 2363 2326 2332 2367 2729 
2726 2330 2331 2336 2730 2337 2334 2340 2734 
2342 2339 2344 2379 2738 2742 2345 2346 2348 
2387 2389 2351 2352 2391 2789 2355 2354 2356 
2754 2793 2324 2358 2360 2757 2758 2368 2364 
2366 2369 2372 2011 2370 2371 2373 2376 2377 
2374 2375 2380 2381 2378 2383 2384 2386 2027 
2388 2029 2390 2031 2392 2790 2394 2035 2395 
2396 2361 2039 2401 2397 2398 2399 2400 2798 
2408 2443 2404 2802 2412 2806 2849 2407 2416 
2411 2813 2414 2420 2418 2417 2415 2814 2422 
2421 2424 2459 2818 2822 2423 2861 2465 2428 
2467 2826 2432 2830 2471 2829 2436 2475 2433 
2873 2440 2439 2801 2838 2448 2842 2881 2447 
2446 2452 2846 2889 2451 2453 2456 2491 2493 
2454 2455 2460 2495 2461 2463 2458 2462 2464 
2499 2858 2466 2468 2865 2866 2472 2511 2870 
2474 2476 2913 2874 2479 2441 2444 2478 2480 
2877 2482 2483 2485 2488 2885 2882 2529 2487 
2486 2492 2886 2496 2531 2533 2494 2497 2500 
2894 2535 2502 2503 2504 2539 2543 2505 2905 
2507 2508 2906 2945 2909 2512 2910 2515 2516 
2914 2555 2953 2517 2519 2484 2518 2520 2918 
2921 2521 2523 2528 2524 2925 2569 2527 2526 
2532 2536 2571 2537 2534 2540 2538 2544 2938 
2941 2547 2548 2946 2550 2949 2549 2551 2552 
2950 2989 2554 2556 2993 2558 2559 2560 2563 
2565 2562 2568 2564 2567 2572 2607 2609 3009 
2576 2613 2575 2580 2615 2977 3017 2581 2579 
2583 2578 2584 2981 2978 2982 2619 3021 2587 
2588 2985 2623 2986 2591 2592 2990 2594 2633 
2595 2596 2994 2635 2597 2599 2598 2600 2637 
3037 2601 2603 2608 2604 2645 2643 3045 2606 
2649 2612 2647 3013 2610 2611 2616 2651 2653 
2657 2620 2655 3014 2622 2624 3022 2659 3018 
2665 2627 2628 3025 3026 2631 3029 2632 2671 
2673 2634 2636 2675 3034 3033 3073 2638 2639 
2640 2679 2642 2648 2644 2646 2652 2687 3049 
2656 2691 3050 3093 2693 2654 2660 2695 2697 
3054 2663 2664 2699 3061 3062 2666 2667 2668 
3065 3066 2709 2672 2711 3070 2674 2676 2715 
3113 3077 2677 2680 2719 3078 2682 2685 2683 
2681 2688 3082 3085 2689 2692 3086 2696 3090 
2694 2700 2735 2737 3094 2703 2704 2741 2739 
2743 3098 2705 2707 2706 2708 3106 2747 2712 
2751 3110 2714 2716 3153 2684 2721 2718 2720 
3117 3118 2725 2722 2723 2728 2763 2727 2732 
3126 2733 2773 2731 2736 3173 3130 2777 2740 
3134 2775 2744 2779 3138 3142 2746 2785 2748 
3185 2750 2752 2791 3149 2753 2755 2756 3193 
2724 2759 2760 3197 2403 2765 2762 2768 2805 
2767 2769 3169 2766 2772 3166 2413 2770 2771 
2776 3170 2817 2774 2780 3174 2781 2778 2782 
2419 2821 2783 2784 3182 3178 2425 2786 2427 
2787 2788 2825 2431 2792 3190 2794 2435 2795 
2796 2833 2761 2799 3161 2764 2797 2800 2808 
2804 2803 3201 2812 2809 3209 2853 2810 2816 
3210 2857 2820 2855 2824 2859 2863 2828 3226 
2827 3265 3225 2832 3230 3269 2834 2836 3234 
3273 2841 2840 2839 2837 3238 3277 3237 2843 
2845 2848 2844 3285 2847 2852 3246 2850 2893 
2851 2856 2891 3250 2854 2860 2897 3254 2895 
3257 2862 2864 3261 3258 3262 3301 2867 2868 
2907 3266 2869 2871 2872 3270 3309 2875 2876 
2915 2879 2878 2880 2919 2917 3317 3278 2883 
2888 2884 3282 2887 2892 2890 2896 2931 3290 
2900 2937 3294 2901 2902 2903 2899 2898 2904 
3302 2908 2947 3345 2911 2912 2916 3353 2920 
2959 3281 2923 2922 2928 2965 3325 2929 2927 
2926 2932 2967 2973 3333 2933 2930 2936 2934 
2935 2940 3337 3334 2942 2939 2943 2944 3338 
2948 3385 2987 3346 2951 2952 3349 2991 2954 
2955 2956 3393 2957 2924 2958 2960 2962 2963 
2968 3001 2969 2966 2972 3007 2971 2970 2976 
3011 3413 2975 2974 2980 3015 3374 2983 2979 
2984 3381 3019 3378 2988 3386 3389 2992 3031 
3390 3429 2995 2996 3035 2961 2997 2999 2964 
2998 3000 3039 3005 3002 3003 3008 3006 3012 
3449 3010 3016 3051 3410 3453 3020 3057 3414 
3421 3023 3024 3422 3059 3418 3027 3028 3069 
3030 3032 3071 3469 3036 3075 3433 3473 3038 
3041 3004 3040 3438 3477 3043 3042 3048 3442 
3083 3046 3047 3052 3087 3446 3053 3056 3450 
3091 3097 3055 3060 3095 3454 3457 3058 3101 
3063 3064 3099 3458 3462 3067 3068 3466 3072 
3111 3470 3074 3076 3115 3474 3079 3044 3080 
3478 3441 3081 3088 3123 3089 3092 3127 3529 
3096 3490 3100 3135 3137 3494 3103 3102 3104 
3139 3141 3143 3145 3105 3107 3108 3147 3505 
3545 3109 3112 3151 3114 3116 3514 3155 3084 
3119 3120 3121 3481 3521 3125 3122 3128 3163 
3522 3129 3132 3167 3526 3569 3133 3131 3136 
3533 3171 3573 3177 3140 3175 3537 3181 3144 
3179 3183 3146 3148 3187 3585 3546 3150 3152 
3189 3191 3589 3154 3156 3195 3553 3157 3158 
3159 3124 3160 3558 3205 3165 3565 3162 3168 
3562 2807 3172 3566 2811 3176 3570 2815 3180 
3574 3221 2819 2823 3184 3578 3186 3188 2831 
3192 2835 3194 3196 3233 3199 3597 3164 3198 
3200 3202 3208 3243 3203 3602 3645 3206 3249 
3212 3606 3609 3216 3251 3253 3653 3610 3613 
3214 3220 3614 3657 3222 3218 3224 3263 3219 
3223 3228 3267 3227 3232 3229 3271 3630 3236 
3275 3634 3235 3204 3241 3240 3239 3641 3637 
3245 3242 3248 3244 3685 3289 3247 3252 3287 
3646 3689 3293 3256 3291 3650 3693 3255 3260 
3697 3259 3264 3303 3658 3662 3268 3307 3666 
3669 3272 3670 3274 3276 3313 3315 3713 3674 
3279 3280 3319 3677 3678 3283 3288 3682 3323 
3286 3292 3327 3686 3296 3331 3690 3295 3297 
3300 3299 3298 3304 3343 3701 3702 3339 3305 
3306 3308 3347 3705 3706 3745 3709 3311 3310 
3312 3351 3710 3749 3314 3316 3355 3284 3321 
3318 3320 3357 3359 3718 3365 3322 3328 3363 
3326 3329 3332 3729 3369 3373 3330 3336 3371 
3730 3377 3335 3737 3340 3375 3342 3341 3344 
3742 3781 3383 3738 3348 3387 3746 3350 3352 
3391 3750 3354 3356 3395 3753 3358 3324 3360 
3397 3399 3362 3368 3403 3805 3366 3367 3372 
3409 3370 3376 3773 3813 3411 3380 3774 3817 
3379 3382 3384 3782 3778 3388 3786 3427 3825 
3789 3392 3431 3394 3396 3794 3361 3401 3437 
3364 3398 3400 3405 3402 3408 3407 3406 3412 
3806 3416 3451 3810 3417 3415 3420 3455 3814 
3857 3461 3419 3423 3424 3459 3425 3426 3428 
3467 3865 3430 3432 3830 3471 3435 3434 3436 
3475 3834 3873 3404 3439 3440 3479 3801 3443 
3445 3448 3483 3485 3842 3447 3452 3487 3849 
3889 3456 3493 3850 3853 3460 3495 3497 3854 
3861 3463 3464 3862 3501 3465 3468 3509 3472 
3513 3476 3515 3444 3480 3519 3881 3482 3488 
3882 3486 3489 3492 3527 3491 3496 3890 3500 
3535 3498 3502 3499 3503 3504 3541 3898 3902 
3901 3506 3507 3508 3906 3510 3511 3512 3516 
3555 3557 3517 3484 3518 3520 3559 3957 3918 
3525 3523 3528 3563 3922 3929 3532 3969 3530 
3531 3933 3536 3571 3534 3937 3540 3577 3538 
3542 3581 3539 3543 3544 3938 3942 3579 3547 
3583 3548 3587 3946 3985 3549 3550 3551 3552 
3950 3554 3556 3595 3524 3560 3958 3561 3568 
3564 3605 3965 3567 3207 3572 3966 3213 3211 
3576 3970 3973 3217 3575 3977 3215 3580 3974 
3582 3584 3978 3982 3586 3588 3625 3590 3231 
3591 3592 3990 3989 3593 3594 3596 3994 3599 
3598 3600 3998 3961 1 3608 3603 3604 41 
49 3612 3649 3616 3651 13 17 14 3620 
3615 22 3661 3618 3622 3624 3659 26 65 
3626 3628 3667 69 3632 3671 73 3673 3636 
38 77 3638 3640 3679 3639 45 42 3642 
85 3643 3648 46 3647 3652 53 50 3656 
57 3654 54 97 3655 3660 58 61 3663 
62 3664 3699 66 105 3665 3668 3707 70 
109 3672 3711 74 3675 3676 3715 113 117 
3681 3644 3680 3717 3719 125 82 3683 3688 
86 3687 89 129 3692 93 3691 90 3696 
3694 3695 94 3700 101 102 3698 3703 141 
3704 3743 106 3708 3747 149 3712 3751 114 
153 3714 3716 3755 121 81 3684 3720 3759 
3757 122 3725 3723 3721 3722 3728 126 3727 
3726 3732 130 3733 133 3731 3736 3771 3735 
3734 3740 3739 3741 138 142 3744 3779 3783 
145 3785 146 3748 3787 3752 3791 154 193 
3793 3754 3756 3724 3758 3760 3799 162 205 
3762 3763 3765 3768 3766 3767 3769 166 3772 
170 3770 3776 3811 174 3777 3775 3780 3815 
3821 221 178 3784 3823 3788 3827 3790 3829 
3792 3831 3795 3796 3833 198 201 3797 3798 
3761 3764 3800 202 3802 3803 3808 3845 206 
3807 3809 3812 3847 213 3816 217 214 3820 
3855 218 3819 222 3818 3822 3824 3826 3828 
3867 230 3869 3832 3835 234 3836 3875 277 
3837 3804 3838 3839 3840 3877 3879 3843 3848 
3885 3846 3852 3851 253 3856 3893 3891 254 
3860 258 3858 262 261 3859 3863 3864 3899 
265 3905 3866 3868 3870 3871 3872 3911 3913 
3874 3876 3915 3878 3841 3844 3880 3919 325 
3883 3888 3923 3925 286 3887 3886 3892 3896 
3931 294 3897 3894 3895 3900 3935 298 3903 
3904 3943 305 3907 3908 3947 309 3949 3909 
3910 3912 3914 3953 3916 3955 3917 3884 3920 
3959 3921 3928 3924 329 326 3926 3927 3932 
333 3930 3936 3934 334 377 3940 3941 3981 
3939 3944 381 3983 3945 3948 3987 3951 3952 
3991 3954 354 3956 3995 3993 321 358 3960 
397 3999 365 362 3601 3962 3963 3968 3967 
3607 3972 3971 3611 370 373 3976 3617 374 
3975 3980 378 3621 3979 3619 3623 3984 385 
3986 3627 3988 3631 3629 3992 33 3635 3633 
3996 3997 3964 4000 
type 1 4000 int
1 1 1 1 1 1 1 1 1 
1 1 1 1 1 1 1 1 1 
1 1 1 1 1 1 1 1 1 
1 1 1 1 1 1 1 1 1 
1 1 1 1 1 1 1 1 1 
1 1 1 1 1 1 1 1 1 
1 1 1 1 1 1 1 1 1 
1 1 1 1 1 1 1 1 1 
1 1 1 1 1 1 1 1 1 
1 1 1 1 1 1 1 1 1 
1 1 1 1 1 1 1 1 1 
1 1 1 1 1 1 1 1 1 
1 1 1 1 1 1 1 1 1 
1 1 1 1 1 1 1 1 1 
1 1 1 1 1 1 1 1 1 
1 1 1 1 1 1 1 1 1 
1 1 1 1 1 1 1 1 1 
1 1 1 1 1 1 1 1 1 
1 1 1 1 1 1 1 1 1 
1 1 1 1 1 1 1 1 1 
1 1 1 1 1 1 1 1 1 
1 1 1 1 1 1 1 1 1 
1 1 1 1 1 1 1 1 1 
1 1 1 1 1 1 1 1 1 
1 1 1 1 1 1 1 1 1 
1 1 1 1 1 1 1 1 1 
1 1 1 1 1 1 1 1 1 
1 1 1 1 1 1 1 1 1 
1 1 1 1 1 1 1 1 1 
1 1 1 1 1 1 1 1 1 
1 1 1 1 1 1 1 1 1 