# vtk DataFile Version 4.0
Generated by LAMMPS
ASCII
DATASET POLYDATA
POINTS 4000 float
4.28427 -0.632236 3.86536 6.28663 -1.04289 1.79915 4.16105 -2.71129 1.65867 
4.4611 -0.73262 40.797 6.01198 -2.90278 40.8561 6.17661 -3.02347 3.98317 
8.54197 0.732115 1.81759 10.3429 -1.73419 1.77951 8.25446 -1.46067 -0.239843 
8.37297 -1.34644 3.76597 10.6409 0.302135 3.74869 8.19897 -3.48276 1.87572 
12.7156 0.0278025 1.86283 14.1619 -2.41428 2.03147 12.3196 -1.91082 4.10023 
14.4138 -0.32856 4.02134 16.4853 -0.511953 1.88122 18.0561 -2.87558 1.75413 
18.2595 -1.03582 3.88353 15.8938 -2.53839 -0.202006 19.9962 -3.4247 3.81747 
16.2225 -2.63053 3.9426 19.9544 -1.14778 1.87043 24.0741 -1.85175 1.82301 
22.0788 -1.38627 -0.166959 24.4314 0.224056 40.8788 21.7307 -3.53987 1.79858 
22.159 -1.64023 3.81682 27.9447 -2.65633 1.64171 26.2343 -0.233293 1.85723 
28.202 -0.644786 3.76223 26.0307 -2.34734 3.9073 24.4145 0.16333 3.89416 
28.285 -0.56212 40.8185 30.2857 -1.09958 1.6975 31.9605 44.0415 1.84739 
32.3246 -1.58418 3.9 29.9722 -2.93536 3.90431 30.1554 -3.16914 -0.206435 
36.6354 -0.192646 1.80903 34.2247 -1.85207 1.68743 36.1676 -2.23231 3.82403 
33.9675 43.7928 3.75782 34.5206 0.0366284 3.82255 36.4092 -2.22787 -0.257194 
34.5277 0.241989 40.7735 4.53731 1.39487 1.63978 6.7029 3.12631 1.71525 
6.41575 0.88579 3.89514 4.91463 3.17817 3.76097 9.07212 4.79001 1.81262 
10.8659 2.27942 1.93274 8.637 2.91705 3.85241 10.9252 4.43031 3.80724 
8.99434 2.64881 -0.120084 14.5413 1.83982 1.89805 12.7738 4.12255 1.81665 
12.7353 2.03783 3.95386 14.7248 3.81552 3.89195 18.5239 1.19896 1.88171 
16.7649 3.68822 1.7343 18.8138 3.16691 -0.175844 18.6656 3.23022 3.74867 
16.5129 1.41962 3.81303 22.2445 0.442214 1.76127 20.4876 0.889538 -0.211608 
20.6443 2.97584 1.88216 23.1385 4.42186 1.79234 20.3424 0.817572 3.90068 
22.551 2.59306 3.868 24.6649 2.00341 1.74933 26.8933 3.73791 1.94509 
28.6702 1.47083 1.79137 25.01 4.25323 4.00936 26.6056 1.70831 3.69797 
32.3925 0.726257 1.77008 30.6155 0.815645 3.69895 30.8254 2.85671 1.70569 
30.6547 0.852818 40.6573 28.8222 3.31116 3.85642 32.993 2.50061 3.71757 
32.8562 2.45709 40.8396 37.0592 3.66387 1.88785 34.7807 2.03942 1.7111 
33.2373 4.59081 1.86067 36.9481 1.79684 4.0057 35.1626 4.13449 3.9167 
36.907 1.76433 40.7015 35.1606 4.11913 -0.229849 7.05725 5.14464 3.85947 
5.07329 5.48198 1.88691 3.28739 5.68789 -0.128398 3.29635 7.96345 1.7284 
5.12281 7.64091 3.82219 5.27512 7.5337 -0.0863256 37.49 5.63404 3.8754 
7.18375 5.10637 -0.237709 7.28323 7.09517 1.90568 11.2245 6.69255 2.00775 
9.54175 8.72479 1.88552 7.39076 9.20063 -0.404638 9.03784 6.89224 3.92843 
9.24767 6.94437 -0.146969 7.38133 9.23423 4.12015 11.4608 8.75314 3.81867 
14.9609 5.98104 1.74271 13.3506 8.31695 1.72362 13.0168 6.27928 3.88238 
15.15 7.99494 -0.505066 15.2387 7.88085 3.91052 18.8934 5.32638 1.63432 
17.2151 7.63177 1.92194 19.5567 9.25795 1.90232 16.9417 5.66624 4.08466 
16.8702 5.69939 -0.31687 19.1155 7.38547 -0.229577 19.0452 7.12868 3.58262 
21.1184 6.77694 1.55943 23.4833 8.38813 1.62484 23.1599 6.39095 3.87239 
20.8304 5.03657 3.76591 21.5609 8.89401 4.01433 25.2775 6.17035 1.95238 
27.2799 5.86938 4.02697 27.558 7.64391 1.96093 25.2911 8.15021 3.86639 
27.2639 5.66759 40.796 31.4985 6.88804 1.8543 29.2436 5.34019 1.85247 
31.7555 8.77253 3.77639 31.2422 4.84714 3.80919 29.5722 7.36491 4.02061 
29.4767 7.38453 -0.237089 35.5729 6.09659 1.82376 35.6592 8.03334 -0.159541 
33.7018 8.22675 1.75853 33.4119 6.44112 3.86215 35.5789 8.13974 3.87756 
5.5228 9.55813 1.83865 3.77746 12.011 1.84276 6.05103 13.6606 1.63621 
3.53886 10.0706 3.96034 5.72987 11.7151 3.87232 3.56514 10.0187 -0.156497 
5.73646 11.6597 -0.339668 7.78544 11.3312 1.74159 9.97647 12.9958 1.57563 
8.08857 13.2825 3.86484 9.75256 10.9179 3.6467 11.8374 10.5808 1.87065 
14.0196 12.2714 1.72948 13.6866 10.2619 3.91086 11.9354 12.6006 -0.211366 
15.4691 10.1196 1.93719 15.9981 12.0516 4.02289 11.8006 12.5836 3.7292 
17.7589 11.6295 1.75107 19.9078 11.1882 3.85139 18.2084 13.6147 3.80707 
20.1549 13.1261 1.81692 17.4669 9.62668 -0.165994 17.4371 9.59998 3.79111 
21.8487 10.6681 1.51351 23.7772 10.3442 3.61278 24.1229 12.3348 1.74522 
22.0916 12.7727 3.87553 25.9121 9.82501 1.72422 28.0325 11.645 1.75089 
25.9281 11.9467 3.79163 27.5802 9.50504 3.99661 28.2445 13.5438 3.77405 
29.7225 9.31291 1.85745 32.1274 10.732 1.56037 30.0273 11.0799 40.9385 
30.3155 13.1564 1.69917 32.2875 12.8734 40.8764 30.211 11.0942 3.83995 
32.1094 12.998 3.82371 35.7426 10.261 1.85991 33.9069 12.6608 1.86828 
36.1758 12.2623 -0.145723 33.8459 10.455 3.72268 34.0412 10.6365 40.8125 
36.0237 12.2346 3.89466 3.92974 14.0628 -0.298909 4.14542 14.0443 3.78266 
4.41614 16.1667 1.62558 6.49828 17.6213 1.60516 6.32572 15.749 3.76585 
8.35217 15.3307 1.66345 10.4823 16.9513 1.80451 10.135 15.1146 4.05314 
8.33564 17.4182 3.74462 10.1149 15.104 40.7954 12.177 14.8076 1.75323 
14.6737 16.1734 1.62949 14.3483 14.3786 3.7561 12.6006 16.5104 3.79502 
16.1209 13.817 1.85759 12.6438 16.8358 -0.309443 18.3522 15.3546 1.81715 
16.8931 17.8834 1.57089 18.6437 17.6886 3.93341 16.3983 16.0458 4.10787 
18.3619 13.5112 40.7449 18.9886 17.2701 -0.393875 22.4836 14.6952 1.68963 
20.8955 16.9532 1.83911 24.5024 16.5237 1.82147 20.2767 15.2998 3.89284 
22.6742 16.8862 3.96837 24.3896 14.3447 3.89488 24.3775 14.2759 -0.294395 
26.3702 14.0076 1.64816 28.3599 13.5871 -0.269279 26.5108 15.9002 3.66602 
28.7549 15.5212 1.79505 28.6144 17.8248 3.80795 28.8551 17.8146 -0.195226 
32.4058 15.1365 1.56654 30.7007 17.564 1.94549 32.6396 17.2435 -0.25073 
30.5269 15.3006 3.8254 32.5202 17.251 3.77976 36.4558 14.3318 1.88018 
34.4387 14.606 -0.248031 34.7675 16.7639 1.67809 36.6356 16.5668 3.63717 
34.3057 14.7794 3.60595 36.5707 16.3278 -0.380265 4.75416 20.1387 1.61343 
6.83704 19.8879 3.67787 5.01901 22.3103 3.72712 7.04706 21.8496 1.84961 
4.63106 18.1399 3.58506 5.17604 22.1086 40.7094 8.80254 19.3067 1.79434 
11.2284 20.8641 1.86398 10.8142 18.9591 3.81349 9.13432 21.31 3.72988 
10.7546 18.8589 -0.235789 12.6507 18.6156 1.88534 14.9937 20.2858 1.8564 
14.8488 18.3047 3.88173 13.0416 20.6784 40.8041 13.0315 20.7318 3.9585 
15.2656 22.3063 3.93047 14.7995 18.2534 -0.133625 18.9886 19.4451 1.64646 
19.362 21.2672 3.944 17.4495 21.7221 1.73885 17.0623 19.9409 4.03227 
17.0619 20.1037 40.5691 23.0089 18.86 1.70722 20.9808 18.999 3.84759 
21.21 20.954 1.72128 23.2521 20.6896 3.76548 21.019 19.0994 40.7676 
26.7887 18.1751 1.61785 25.2172 20.3497 1.61993 27.22 22.0935 1.54184 
25.5311 22.5189 3.72472 24.9967 18.2962 3.82011 27.0502 20.1608 3.67417 
29.0083 19.8388 1.73748 31.0909 19.5299 40.9474 31.12 21.655 1.80386 
29.2859 21.8987 -0.0855029 32.8978 19.358 1.93385 30.747 19.5712 3.82319 
29.3005 21.9419 3.83759 33.1822 21.3923 3.6216 37.0209 20.6209 40.6719 
36.7627 18.718 1.77487 34.7483 18.8377 -0.206888 35.038 21.0503 1.6459 
37.1738 20.6223 3.8567 34.9035 19.0296 3.75619 5.25439 24.1969 1.64469 
5.59287 26.1532 3.85296 7.53675 25.8414 1.72109 7.3356 23.8139 3.82685 
7.41711 23.9232 40.7983 9.30944 23.4075 1.69994 11.2452 23.0645 3.89073 
11.5368 24.9535 1.83607 9.58597 25.4601 3.84728 9.53134 25.3476 -0.306873 
13.4224 22.5833 1.81976 15.532 24.1807 1.83582 13.7934 26.6384 1.74857 
13.6705 24.6447 3.84069 15.8335 25.9762 3.99369 15.0922 22.3926 40.6992 
13.5659 24.6177 40.5496 15.7979 26.0495 -0.31455 17.7106 25.5991 1.91125 
19.741 23.4618 1.65834 17.4381 23.6718 3.80218 19.6659 25.3064 3.85626 
23.5769 22.535 1.73453 21.809 24.9145 1.79195 21.5784 22.8731 3.83771 
23.5562 24.7393 3.81699 25.2895 22.5331 40.616 25.5611 24.4793 1.4969 
27.648 24.3031 40.7989 27.8116 26.3515 1.50879 25.766 26.6849 -0.238216 
27.3976 24.3236 3.7513 25.7048 26.6809 3.76544 29.4364 23.9819 1.65 
31.1248 23.8016 40.6625 31.5348 25.7311 1.6057 31.4142 23.6687 3.68596 
29.7883 26.061 3.55499 2.97718 22.7525 1.55491 3.29094 24.6575 3.57367 
33.3766 23.356 1.50109 35.7001 25.0637 1.62799 35.4005 22.9066 3.59731 
33.8414 25.4514 3.58919 3.53592 26.6741 1.55361 5.82002 28.1595 1.62397 
4.35141 30.4859 1.60287 3.88564 28.5606 3.88276 6.32568 30.1814 3.89467 
7.72054 27.7299 3.99323 3.78908 28.726 40.6235 6.22688 30.21 40.6542 
9.7215 27.4992 1.8723 8.14708 29.7943 1.77755 10.1357 29.4041 3.77125 
11.7167 26.9987 3.91021 10.2041 29.4024 -0.191062 7.79861 27.8461 40.784 
12.0478 29.0455 1.73855 14.5152 30.3008 1.93673 16.1772 27.965 1.64892 
16.328 30.1419 40.7994 13.9132 28.3378 4.01165 14.0903 28.4308 40.6885 
18.0879 29.9161 1.96673 19.7733 27.2061 1.67696 16.2873 30.0934 4.13859 
18.0731 27.5779 3.78595 20.0502 29.5531 3.86661 23.7347 26.7379 1.77685 
22.0409 29.0669 1.67885 24.1239 28.9933 -0.166794 24.0129 29.0324 3.66948 
21.8389 27.1034 3.79054 22.0543 27.2547 40.7593 26.0109 28.5468 1.78791 
27.9691 28.545 40.8565 26.1828 30.7965 40.9218 28.2912 30.5701 1.72538 
28.1179 28.4321 3.71233 26.202 30.6978 3.83643 29.9313 28.1914 1.73663 
32.2249 29.8569 1.54782 32.1687 27.7629 3.73376 30.2947 30.1519 3.69942 
35.9279 26.9221 40.6026 33.9334 27.3439 1.43877 36.2101 29.0353 1.69988 
35.9084 27.0811 3.59961 34.234 29.4616 40.6401 34.1584 29.4292 3.50924 
6.63959 32.1332 1.66852 4.81127 34.4732 1.74309 4.45431 32.4638 3.72053 
6.7393 34.0307 3.72778 10.4795 31.3572 1.69952 8.85289 33.8306 1.9373 
8.59488 31.8196 4.06696 10.6678 33.5949 4.06581 10.7043 33.3918 -0.270394 
8.40226 31.6942 40.7317 12.5967 32.9193 1.78892 14.709 32.7148 -0.41677 
14.9228 34.7039 1.92877 12.9383 35.0997 -0.152039 13.0649 35.1963 3.90471 
12.1744 31.078 3.7394 14.5069 32.5685 3.85979 12.5071 30.9681 -0.171576 
16.5378 32.2357 1.83278 18.7758 33.901 1.88899 16.7106 34.2322 3.85329 
18.5131 31.8682 3.98804 18.7414 31.9402 -0.179366 22.3019 31.3458 3.86762 
24.2305 31.1214 1.84751 22.4482 31.4787 -0.203363 20.5889 31.4308 1.81346 
22.6791 33.3963 1.76249 20.7675 33.7727 -0.239101 20.735 33.7849 3.92159 
22.892 35.3605 3.81686 26.4611 32.8534 1.73863 24.5476 33.2724 40.6816 
24.6941 35.1222 1.93931 28.5798 34.3682 1.85179 28.6201 32.3876 3.87389 
[...]
POINT_DATA 4000
FIELD FieldData 6
id 1 4000 int
405 7 3 2 5 766 12 11 9 
409 410 372 16 15 413 414 20 19 
418 17 421 417 24 28 22 65 23 
422 32 67 469 426 465 30 36 35 
434 430 33 4 40 401 437 438 38 
77 8 47 406 445 52 51 449 450 
49 55 56 453 454 59 60 58 458 
457 63 61 64 103 461 462 68 72 
71 505 466 75 473 76 73 470 477 
74 43 79 80 402 441 41 78 446 
48 42 83 485 85 442 46 87 91 
92 86 489 89 486 490 95 96 493 
94 494 99 100 139 497 97 98 498 
104 108 502 501 541 107 509 112 506 
109 115 111 517 474 513 110 44 81 
119 478 481 88 123 128 482 525 82 
125 127 132 526 529 131 136 533 130 
135 534 530 140 538 577 144 137 537 
143 545 148 542 147 151 549 510 553 
116 120 153 155 157 514 557 84 159 
121 518 118 521 122 522 163 168 565 
167 172 569 566 169 171 176 573 570 
175 170 179 180 578 574 138 178 183 
184 187 581 585 546 185 152 150 550 
156 593 193 160 195 197 554 597 124 
158 199 561 558 161 203 605 602 208 
562 202 207 212 609 606 209 211 215 
613 213 610 614 174 219 621 220 617 
217 188 582 223 586 221 191 192 231 
629 589 590 196 194 235 233 200 594 
633 637 201 164 198 239 601 598 243 
642 248 645 245 247 649 251 646 249 
216 255 256 653 657 214 253 254 259 
224 618 622 227 228 625 626 229 232 
230 271 269 630 669 236 234 275 634 
673 204 641 240 279 638 677 244 283 
284 681 682 685 281 285 252 287 689 
650 289 246 291 295 260 297 654 293 
264 263 658 661 662 267 268 266 666 
665 265 272 270 309 311 670 709 276 
315 674 713 278 280 319 678 317 717 
288 323 721 725 292 327 686 690 329 
286 296 294 300 333 694 693 697 290 
299 304 698 701 301 705 307 305 303 
308 302 702 745 312 306 347 351 710 
706 749 316 314 753 355 714 318 320 
359 757 718 758 357 328 363 722 761 
726 322 331 332 330 729 336 733 326 
335 340 734 737 337 339 344 738 741 
338 341 343 348 342 742 785 352 389 
387 346 746 789 356 391 350 750 793 
754 393 354 324 395 360 797 399 368 
364 762 765 1 730 367 371 769 366 
770 375 376 774 374 777 380 773 379 
384 778 381 781 383 388 382 782 425 
25 27 392 386 429 786 31 396 790 
433 390 37 794 39 400 798 397 398 
407 768 805 1166 412 411 810 809 772 
416 415 814 813 420 419 817 821 818 
424 463 822 428 865 432 467 869 826 
471 436 830 873 403 440 801 834 838 
806 408 447 845 451 849 452 850 455 
456 853 854 459 460 857 858 464 503 
861 901 862 468 507 905 866 472 475 
476 909 877 870 443 404 479 841 802 
846 448 483 885 842 487 492 886 491 
890 889 495 496 894 893 499 897 500 
898 539 941 504 543 902 508 512 906 
945 511 480 917 913 874 444 519 878 
881 488 882 523 925 528 527 532 926 
929 535 531 536 933 930 937 540 579 
934 938 544 548 942 981 516 547 910 
949 515 520 555 957 914 484 918 559 
921 922 563 965 568 962 567 572 969 
966 571 576 973 970 575 580 977 974 
1017 583 584 978 946 985 551 953 552 
591 950 556 560 595 954 993 997 524 
599 958 961 603 1005 1002 608 607 612 
1006 1009 611 1010 616 1013 615 619 620 
1014 1021 588 587 986 982 989 592 631 
990 596 635 994 1033 600 1001 564 639 
998 1037 643 1041 1042 1045 647 648 1049 
652 1046 651 655 1053 1050 1057 623 624 
1022 1018 627 628 1025 1026 1029 632 1030 
671 1069 636 675 1034 1073 604 640 679 
1038 1077 644 683 684 1081 1082 687 688 
1085 1086 691 656 660 1089 1054 659 664 
1061 1058 663 1062 667 1065 668 1066 707 
672 1109 1070 711 676 715 1113 1074 680 
719 1078 1117 723 724 1121 1122 692 727 
1125 1090 695 700 1097 1094 1093 699 704 
1098 1101 703 708 1102 1145 1105 712 1106 
747 1149 1110 751 716 1153 1114 755 759 
720 1157 1118 1158 728 763 1161 1126 1198 
696 731 1133 736 1129 735 1137 740 1134 
739 744 1141 1138 743 748 1142 1185 752 
1146 787 1189 756 791 1150 1193 1154 795 
799 760 800 1197 767 764 732 1162 1165 
1130 1170 1169 771 775 776 1174 1173 1177 
780 779 1178 784 1181 783 423 788 1182 
825 427 792 829 1186 431 796 1190 833 
439 435 1194 837 803 807 1202 1205 812 
811 1210 1209 1172 816 815 1213 1214 820 
819 1218 1217 1221 824 828 863 1222 1261 
1265 832 867 1226 1269 871 836 1230 1234 
840 804 1238 1277 1206 808 847 1245 851 
852 1249 1250 855 856 1254 1253 859 860 
1257 1258 864 903 1262 1301 868 872 907 
1266 1305 875 876 1270 1274 1273 1313 843 
879 880 1241 1278 1246 848 883 1285 887 
891 892 1289 1286 1290 1293 895 896 1294 
899 1297 900 939 1298 904 943 1302 1341 
908 912 1309 1306 911 915 916 1310 1314 
1242 844 919 1281 1317 888 923 928 1325 
1282 927 932 1326 1329 935 931 1330 936 
1333 940 979 1337 1334 1338 944 948 1345 
1342 947 951 1349 1346 1350 920 955 1357 
1353 884 1318 959 1321 1322 963 1365 968 
1369 967 972 1366 971 976 1370 1373 1377 
975 980 1374 1378 983 987 984 1381 1382 
952 991 956 1385 1389 960 1354 995 1393 
1397 924 1361 999 1358 1362 1003 1405 1402 
1008 1007 1012 1406 1409 1011 1016 1410 1413 
1414 1015 1019 1020 1417 1418 988 1023 1421 
1425 992 1390 1031 1386 996 1035 1394 1433 
1000 1437 1401 964 1039 1398 1043 1044 1441 
1442 1445 1047 1048 1449 1446 1052 1055 1051 
1453 1454 1024 1059 1457 1461 1027 1028 1426 
1422 1429 1032 1071 1430 1469 1036 1075 1473 
1434 1004 1040 1079 1438 1477 1083 1084 1481 
1482 1087 1088 1485 1489 1091 1056 1450 1095 
1493 1060 1064 1063 1458 1497 1067 1465 1068 
1462 1466 1107 1072 1470 1509 1111 1076 1115 
1513 1474 1080 1119 1517 1478 1518 1123 1124 
1521 1525 1092 1127 1486 1529 1096 1100 1533 
1494 1490 1099 1498 1501 1104 1505 1103 1108 
1502 1506 1112 1147 1549 1510 1151 1116 1553 
1155 1514 1120 1159 1160 1557 1558 1128 1163 
1565 1522 1131 1132 1136 1530 1526 1135 1534 
1140 1537 1139 1144 1538 1541 1545 1143 1148 
1542 1585 1152 1589 1187 1546 1550 1156 1191 
1593 1195 1199 1200 1561 1554 1597 1168 1164 
1201 1562 1167 1171 1570 1573 1566 1569 1175 
1176 1574 1180 1577 1179 1184 1581 1578 1183 
823 1188 1225 1582 827 1192 1586 1229 831 
1196 1233 1590 1237 839 835 1594 1598 1208 
1204 1641 1602 1212 1610 1207 1211 1606 1609 
1216 1215 1614 1613 1220 1219 1618 1617 1621 
1224 1228 1263 1661 1622 1665 1267 1232 1630 
1626 1236 1235 1634 1275 1633 1240 1279 1677 
1638 1247 1243 1642 1645 1649 1251 1252 1650 
1653 1255 1256 1654 1259 1260 1658 1657 1660 
1264 1303 1701 1662 1271 1268 1272 1669 1666 
1276 1670 1673 1674 1315 1244 1280 1717 1678 
1646 1248 1283 1685 1288 1681 1291 1287 1689 
1292 1686 1690 1295 1296 1694 1693 1299 1697 
1300 1339 1698 1700 1304 1308 1705 1702 1703 
1307 1312 1709 1706 1311 1316 1351 1713 1710 
1753 1319 1320 1714 1718 1682 1323 1725 1729 
1327 1332 1726 1335 1331 1730 1336 1733 1734 
1340 1344 1737 1741 1738 1343 1348 1745 1742 
1347 1352 1749 1746 1789 1355 1356 1750 1754 
1284 1721 1359 1757 1328 1363 1368 1762 1722 
1765 1367 1769 1372 1766 1371 1376 1773 1770 
1375 1379 1778 1380 1777 1384 1383 1781 1785 
1782 1388 1387 1391 1786 1360 1395 1797 1793 
1790 1324 1758 1399 1761 1403 1805 1802 1408 
1407 1412 1806 1809 1411 1415 1813 1774 1814 
1419 1420 1817 1818 1423 1424 1821 1822 1392 
1427 1431 1825 1829 1396 1794 1435 1833 1400 
1404 1364 1801 1798 1439 1837 1443 1444 1842 
1841 1451 1447 1448 1845 1810 1849 1416 1455 
1853 1854 1456 1459 1460 1857 1858 1428 1463 
1861 1865 1432 1830 1471 1869 1826 1436 1475 
1873 1834 1440 1479 1838 1877 1483 1484 1881 
1885 1452 1487 1846 1889 1491 1850 1893 1496 
1495 1464 1499 1894 1901 1897 1899 1467 1468 
1866 1862 1472 1870 1511 1909 1476 1874 1913 
1515 1480 1519 1878 1918 1917 1488 1523 1882 
1925 1492 1527 1929 1886 1531 1535 1890 1933 
1930 1500 1504 1898 1937 1905 1507 1503 1508 
1902 1906 1512 1547 1949 1910 1912 1516 1555 
1914 1551 1953 1520 1559 1560 1957 1921 1528 
1563 1922 1965 1961 1532 1567 1571 1926 1969 
1536 1540 1934 1973 1975 1539 1941 1544 1938 
1945 1543 1548 1942 1985 1946 1552 1587 1989 
1950 1556 1591 1993 1954 1524 1595 1599 1958 
1997 1203 1568 1564 1962 1601 1572 1605 1966 
1970 1575 1576 1974 1977 1580 1579 1978 1584 
1981 1979 1583 1223 1588 1625 1982 1227 1592 
1629 1986 1231 1596 1994 1990 1239 1600 1998 
1637 1604 1643 2041 2002 2043 2004 1608 1612 
2045 2006 2008 2047 2049 1616 2014 1615 2010 
2016 2051 2017 1620 1619 2018 1659 2021 2020 
2019 1624 1628 1663 2061 2022 2024 2028 2027 
1632 1631 2030 2026 2029 2032 2031 1636 1635 
1675 2033 2034 2035 2075 1640 1679 2038 2077 
2040 2079 1648 1644 2042 2044 2083 2081 1647 
1651 1652 2050 2046 2048 2052 2087 1655 1656 
2053 2054 2055 2056 1699 2059 2057 2058 2060 
2064 1664 1668 2065 2062 2063 2068 1667 1671 
1672 2069 2066 2071 2067 2072 2070 1676 2073 
2074 2076 2111 2113 1715 1680 1719 2115 2078 
2117 2080 2119 1683 1684 2082 2085 2084 2118 
2159 1687 2089 1692 2086 1691 2088 2091 2092 
2090 1695 1696 2093 2094 2095 2096 1704 2097 
2101 2098 2099 2104 1708 2105 2102 2103 2108 
1707 1712 2109 2106 2107 2112 1711 1716 1751 
2110 2116 2153 1720 1755 2114 2155 2120 2157 
1688 1723 2125 1728 2123 2124 2121 2129 1727 
1732 2126 2127 2132 1731 2133 1736 2130 2131 
2100 2135 1735 2137 1739 1744 2138 2141 2139 
2140 1743 1748 2144 2145 2142 2143 2148 1747 
1752 2149 2146 2147 2152 1756 1791 2150 2151 
2156 2193 2191 1759 1760 2158 2154 2160 2195 
2122 2165 1763 1768 2162 2128 2163 2168 1767 
2169 1772 2166 2167 2171 1771 1775 2134 2173 
2136 2175 1740 1779 2177 2178 1780 2179 2180 
2181 1783 1784 1788 2184 2185 2183 2182 1787 
1792 2188 2189 2187 2186 2192 2227 2229 1795 
1796 2190 2196 2231 2194 1724 1799 2161 2199 
2197 2200 2205 1803 1808 1804 2202 2207 2203 
2204 1807 1811 2170 2172 2209 2211 1776 1815 
2213 2174 2176 2215 1819 1820 2218 2217 2219 
2220 1823 1824 2221 2222 2223 2224 1827 1828 
1831 1832 2225 2228 2226 1835 2232 2233 2235 
2230 2236 2201 1764 1800 2198 2237 1839 2164 
2239 1843 1844 2241 2208 2245 2243 2206 1812 
1847 1851 2210 2249 2212 2251 2247 1816 1855 
2214 2253 2254 2216 2255 1859 1860 2257 2258 
2259 2260 1863 1864 2261 2263 2264 2262 1871 
1867 2265 2269 2272 1836 2234 1875 2273 2271 
2275 1840 2238 2277 1879 2240 1848 1883 2285 
2242 2283 1852 1887 2246 2250 2289 2252 2287 
1856 1891 1896 2293 2291 2256 2296 2290 1895 
1900 2294 2295 2297 2299 2300 1868 1903 2301 
2298 2303 2305 2304 1872 2270 2309 1911 2266 
2311 2307 1876 2274 1915 2313 2276 2315 2278 
1880 1919 2317 2244 2280 2281 1888 1923 2325 
2282 2288 2323 1892 1927 2329 2286 2292 2327 
1931 1936 2333 2331 2336 2330 1935 1939 2335 
2337 2334 2340 1907 1904 1908 2339 2302 2308 
2341 2343 2306 1947 2349 2310 2312 2347 1916 
1955 1951 2314 2353 2316 2320 2351 1884 1920 
1959 2321 2318 2319 1928 1963 2365 2322 2328 
2363 2361 1932 1967 1972 2326 2332 2369 2367 
1971 2373 2370 2371 2376 1940 1944 2338 2377 
2375 2379 1943 2345 1948 2342 2385 2344 2348 
1952 2346 1987 2389 2352 2387 1956 1991 2350 
2354 2355 2356 1960 2357 1924 1999 2358 2324 
2399 1603 1964 2362 2001 2003 2364 1968 2005 
1607 2366 2368 2007 2372 1611 2009 1976 1980 
2012 2013 2015 2374 2011 2381 1984 2378 2380 
2384 1983 1623 1988 2382 2025 2383 2023 2388 
1627 1992 2386 2390 2392 2391 1995 1996 2393 
2394 2395 1639 2000 2398 2397 2037 2039 2402 
2441 2404 2443 2445 2406 2408 2447 2446 2449 
2451 2452 2453 2414 2418 2420 2423 2419 2422 
2425 2428 2427 2429 2430 2426 2432 2431 2036 
2434 2433 2436 2435 2477 2438 2440 2479 2481 
2442 2444 2483 2485 2448 2487 2489 2488 2454 
2450 2455 2456 2424 2461 2457 2459 2464 2465 
2462 2463 2468 2469 2466 2467 2472 2470 2471 
2473 2474 2475 2476 2515 2517 2478 2480 2519 
2521 2482 2484 2518 2559 2525 2523 2486 2492 
2491 2490 2493 2497 2460 2495 2458 2501 2498 
2499 2504 2502 2505 2503 2508 2509 2506 2507 
2512 2510 2513 2511 2516 2553 2551 2514 2555 
2520 2557 2522 2524 2558 2599 2526 2529 2527 
2531 2533 2494 2496 2535 2537 2538 2541 2500 
2539 2540 2544 2545 2542 2543 2548 2546 2549 
2547 2552 2589 2593 2550 2556 2591 2554 2597 
2595 2560 2565 2528 2561 2563 2567 2562 2569 
2530 2532 2571 2534 2573 2536 2575 2577 2578 
2579 2580 2581 2585 2582 2584 2583 2588 2629 
2587 2586 2592 2633 2590 2596 2631 2598 2594 
2635 2600 2566 2605 2568 2607 2570 2609 2572 
2611 2613 2614 2574 2576 2615 2617 2618 2619 
2620 2621 2623 2624 2622 2625 2626 2628 2627 
2667 2630 2632 2636 2669 2671 2637 2634 2601 
2564 2639 2602 2603 2645 2608 2643 2606 2610 
2649 2612 2647 2653 2654 2651 2616 2655 2656 
2658 2657 2659 2660 2661 2663 2664 2662 2267 
2268 2666 2665 2668 2707 2673 2670 2675 2672 
2279 2638 2677 2604 2640 2248 2685 2642 2648 
2683 2646 2689 2652 2687 2650 2693 2691 2696 
2695 2694 2697 2699 2700 2701 2698 2703 2704 
2702 2706 2705 2709 2711 2708 2713 2674 2676 
2680 2681 2641 2678 2679 2644 2682 2725 2688 
2723 2729 2686 2692 2727 2733 2690 2731 2736 
2730 2734 2735 2737 2740 2739 2738 2741 2743 
2744 2745 2749 2710 2712 2747 2714 2716 2717 
2715 2720 2284 2718 2359 2719 2721 2684 2759 
2722 2765 2728 2763 2761 2726 2769 2732 2767 
2772 2773 2771 2776 2770 2777 2774 2775 2780 
2785 2781 2742 2779 2748 2783 2750 2746 2752 
2751 2753 2754 2755 2756 2757 2360 2797 2724 
2758 2760 2799 2762 2401 2403 2764 2405 2766 
2768 2407 2409 2410 2413 2412 2416 2411 2417 
2778 2415 2784 2421 2786 2782 2788 2787 2789 
2790 2792 2791 2396 2794 2793 2795 2796 2400 
2437 2798 2439 2800 2841 2802 2804 2843 2846 
2845 2808 2847 2849 2853 2851 2816 3182 2821 
2814 2820 2819 2825 2822 2828 2823 2827 2826 
2830 2829 2832 2831 2834 2833 2836 2875 2835 
2877 2838 2840 2879 2881 2842 2844 2883 2885 
2848 2852 2887 2893 2850 2857 2856 2855 2861 
2824 2818 2859 2864 2862 2865 2863 2868 2866 
2869 2871 2867 2872 2870 2873 2876 2913 2917 
2874 2915 2878 2880 2919 2882 2918 2921 2884 
2888 2959 2889 2886 2891 2892 2890 2897 2854 
2860 2895 2898 2858 2901 2899 2904 2905 2902 
2903 2908 2909 2906 2907 2912 2953 2910 2911 
2916 2914 2957 2955 2920 2958 2923 2925 2924 
2926 2929 2927 2931 2894 2896 2933 2900 2935 
2941 2937 2938 2939 2944 2945 2942 2943 2948 
2949 2946 2947 2952 2989 2950 2993 2951 2956 
2991 2954 2997 2995 2960 2961 2922 2928 2965 
2963 2967 2930 2969 2932 2971 2934 2973 2936 
2975 2974 2977 2978 2940 2979 2980 2981 2985 
2982 2983 2984 3029 2988 2986 2987 2992 3033 
2990 2996 3031 2994 2999 2998 3000 2966 3005 
2968 3003 3007 2970 3009 2972 3011 3013 3014 
2976 3015 3017 3018 3019 3020 3021 3022 3023 
3024 3025 3026 3027 3028 3067 3069 3030 3032 
3035 3036 2962 2964 3037 3039 3034 3045 3002 
3008 3043 3006 3010 3049 3012 3051 3047 3053 
3054 3016 3055 3056 3057 3058 3059 3060 3062 
3061 3063 3064 3066 3065 3068 3072 3071 3073 
3075 3070 3001 3038 3004 3040 3085 3042 3048 
3083 3089 3046 3052 3087 3093 3090 3050 3091 
3096 3094 3098 3095 3097 3099 3100 3101 3102 
3103 3104 3105 3109 3107 3111 3106 3074 3076 
3077 3080 3041 3078 3081 3079 3044 3082 3125 
3088 3123 3086 3129 3092 3127 3132 3130 3133 
3131 3136 3134 3137 3135 3140 3138 3108 3139 
3141 3143 3110 3112 3145 3113 3147 3116 3117 
3114 3115 3120 3121 3118 3119 3084 3159 3122 
3128 3163 3161 3126 3169 3165 3167 3172 3173 
3170 3171 3176 3177 3174 3175 3179 3142 3144 
3181 3146 3148 3183 3149 3150 3152 3151 3153 
3154 3155 3156 3157 3160 3124 3158 3199 2801 
3162 2803 3164 2806 3166 2805 2809 3168 2807 
2810 2813 2812 2811 2815 2817 3178 3180 3184 
3186 3185 3188 3187 3189 3190 3192 3191 3193 
3194 3195 3196 3197 2837 3198 2839 3200 3241 
3202 3204 3243 3245 3249 3208 3212 3247 3210 
3214 3216 3215 3221 3217 3218 3220 3219 3225 
3224 3228 3227 3230 3226 3229 3232 3231 3234 
3233 3236 3235 3273 3275 3238 3277 3240 3279 
3242 3281 3248 3244 3246 3251 3252 3250 3254 
3255 3253 3256 3257 3261 3259 3260 3262 3222 
3265 3263 3268 3269 3266 3267 3272 3270 3274 
3313 3271 3276 3278 3317 3280 3319 3315 3318 
3285 3283 3282 3284 3287 3286 3289 3292 3291 
3290 3297 3293 3295 3296 3258 3301 3264 3299 
3304 3302 3305 3303 3308 3309 3306 3307 3312 
3353 3310 3311 3316 3314 3357 3355 3320 3288 
3325 3321 3323 3329 3326 3327 3332 3333 3294 
3300 3331 3335 3337 3298 3341 3339 3338 3344 
3345 3342 3343 3348 3349 3346 3347 3352 3393 
3350 3351 3356 3391 3354 3359 3358 3360 3328 
3322 3365 3363 3368 3330 3367 3371 3369 3334 
3373 3336 3375 3377 3378 3340 3379 3380 3382 
3381 3383 3384 3385 3389 3386 3429 3388 3387 
3392 3390 3395 3396 3394 3324 3397 3361 3399 
3366 3362 3405 3403 3407 3370 3409 3372 3411 
3374 3414 3413 3376 3415 3417 3418 3419 3420 
3421 3422 3423 3424 3425 3426 3427 3428 3432 
3433 3431 3430 3435 3400 3364 3398 3437 3401 
3439 3445 3406 3402 3408 3443 3404 3410 3449 
3412 3451 3447 3453 3454 3416 3455 3456 3457 
3458 3459 3460 3461 3462 3463 3464 3465 3469 
3467 3471 3434 3436 3475 3473 3438 3440 3477 
3479 3442 3485 3448 3483 3446 3489 3452 3487 
3450 3493 3490 3495 3491 3496 3494 3498 3497 
3499 3500 3501 3468 3503 3505 3466 3470 3472 
3509 3511 3513 3474 3476 3515 3441 3481 3478 
3444 3480 3525 3482 3488 3523 3486 3529 3492 
3527 3533 3530 3531 3536 3534 3537 3539 3535 
3507 3502 3541 3504 3508 3506 3549 3512 3547 
3510 3517 3514 3551 3516 3520 3518 3521 3484 
3519 3559 3522 3561 3528 3563 3565 3569 3526 
3532 3567 3572 3573 3570 3571 3575 3538 3540 
3577 3544 3545 3542 3543 3548 3585 3550 3546 
3552 3587 3557 3554 3553 3555 3556 3558 3524 
3560 3599 3201 3562 3203 3564 3206 3205 3566 
3568 3207 3209 3574 3213 3211 3576 3580 3581 
3579 3578 3584 3583 3586 3582 3223 3588 3590 
3589 3591 3592 3594 3593 3595 3596 3237 3598 
3597 3239 3600 3602 3641 3608 3604 10 3610 
3606 3611 3607 14 3613 3614 13 3616 3615 
21 18 3618 3617 3620 3619 3621 3622 3624 
3628 3663 3626 26 3630 3629 3632 3631 34 
3634 3633 3636 3635 3638 3677 3640 3679 6 
45 3645 3642 3643 3647 3612 3650 50 3649 
3652 3651 53 3654 3653 54 3655 3656 57 
3658 3657 3659 3660 101 62 3661 3662 3665 
3664 3668 69 66 3669 3666 3667 3672 3674 
3671 3673 3670 3675 70 3676 113 3678 3717 
3715 3644 3680 3646 3648 3681 3685 3683 3689 
3687 3692 3691 90 93 3694 3690 3693 3695 
3696 3699 3701 3697 3700 102 105 3705 3702 
3703 3708 3709 3706 3707 106 3712 114 3713 
3753 3710 3711 3716 117 3714 3718 3719 3720 
3682 3725 3688 3723 3728 129 126 3686 3726 
3729 3727 3732 3730 133 3733 3735 3731 3736 
134 141 3738 3704 3698 3737 3741 3739 3744 
3745 3742 145 3743 142 3748 3749 3746 149 
3747 146 3752 3750 3754 3751 3755 3756 3721 
3757 3684 3759 3765 165 3722 3763 3768 3769 
166 3766 3767 3772 3734 173 3773 3771 3775 
3777 3778 3740 177 3779 3785 3781 3782 181 
3783 182 3784 189 3789 3786 3788 3787 3791 
154 3793 3760 3790 3795 3797 3758 3724 3761 
3799 3762 3802 3805 162 205 3803 3808 3770 
3809 206 3807 3811 3813 3814 3774 3776 3815 
3818 3817 3780 3819 218 3820 225 3821 3822 
3823 3824 186 190 3825 3792 3829 3827 3794 
3796 3833 3835 3800 237 3764 3798 3801 3837 
3839 241 3806 3845 3841 3804 242 3843 3844 
3849 3810 3812 210 3851 3847 3853 3854 3816 
3855 261 3857 3858 257 3859 3860 226 222 
3861 3828 3865 3863 3826 3831 3830 3832 3871 
273 3834 3836 3873 3875 238 277 3877 3838 
3840 3879 3842 3885 3848 3883 3889 3846 3852 
3887 250 3850 3893 3890 3856 3891 3895 3896 
258 3897 3894 3899 3864 262 3901 3867 3862 
3868 3866 3907 3869 3870 3872 3909 3911 3874 
3913 274 313 3876 3915 3917 3878 3880 3919 
3925 3882 282 3888 325 3923 3929 3886 3892 
3927 3933 3930 3931 3935 298 3898 3937 3900 
3904 345 3905 3902 3903 3908 3945 349 310 
3949 3906 3912 3947 3910 353 3914 3953 3916 
3951 3955 3921 3881 3884 3918 3920 321 3922 
3961 365 3928 3963 361 3965 3926 3969 3932 
3967 3971 334 3934 3973 3936 3940 3938 3939 
3944 3941 385 3943 3985 3942 3948 3946 3989 
3952 3987 3957 3954 3950 3956 3991 3958 3959 
358 3924 3960 3999 3601 3962 3603 362 3964 
369 370 3605 3966 3968 3609 3972 373 377 
3970 3975 3976 3974 3977 3980 378 3978 3981 
3979 3984 3983 3625 3982 3623 3988 3990 29 
3986 3627 3992 394 3993 3994 3995 3996 3637 
3998 3997 3639 4000 
type 1 4000 int
1 1 1 1 1 1 1 1 1 
1 1 1 1 1 1 1 1 1 
1 1 1 1 1 1 1 1 1 
1 1 1 1 1 1 1 1 1 
1 1 1 1 1 1 1 1 1 
1 1 1 1 1 1 1 1 1 
1 1 1 1 1 1 1 1 1 
1 1 1 1 1 1 1 1 1 
1 1 1 1 1 1 1 1 1 
1 1 1 1 1 1 1 1 1 
1 1 1 1 1 1 1 1 1 
1 1 1 1 1 1 1 1 1 
1 1 1 1 1 1 1 1 1 
1 1 1 1 1 1 1 1 1 
1 1 1 1 1 1 1 1 1 
1 1 1 1 1 1 1 1 1 
1 1 1 1 1 1 1 1 1 
1 1 1 1 1 1 1 1 1 
1 1 1 1 1 1 1 1 1 
1 1 1 1 1 1 1 1 1 
1 1 1 1 1 1 1 1 1 
1 1 1 1 1 1 1 1 1 
1 1 1 1 1 1 1 1 1 
1 1 1 1 1 1 1 1 1 
1 1 1 1 1 1 1 1 1 
1 1 1 1 1 1 1 1 1 
1 1 1 1 1 1 1 1 1 
1 1 1 1 1 1 1 1 1 
1 1 1 1 1 1 1 1 1 
1 1 1 1 1 1 1 1 1 
1 1 1 1 1 1 1 1 1 