# vtk DataFile Version 4.0
Generated by LAMMPS
ASCII
DATASET POLYDATA
POINTS 4000 float
4.71398 1.50141 1.5721 4.10171 -0.375953 3.52982 6.32091 -0.828106 1.68901 
6.73395 1.36253 3.64512 4.15864 -2.44556 1.45211 8.51085 1.07159 1.70558 
10.498 -1.31701 1.70218 8.39526 -0.959804 3.58843 10.8017 0.579485 3.77336 
12.6498 0.45829 1.65845 14.3371 -1.80508 1.60753 12.6457 -1.78494 3.72273 
14.5157 0.222168 3.74123 16.6619 0.0401137 1.66495 18.2697 -2.24547 1.51305 
18.7969 1.91871 1.46378 18.5839 -0.102459 3.67839 16.5061 -1.917 3.67409 
20.3529 42.9512 3.54005 20.5075 -0.527311 1.38045 20.8092 1.49385 3.48101 
24.5395 -0.979499 1.3437 22.4329 42.6447 1.37007 22.5313 -0.839431 3.4039 
22.7319 1.15802 1.34455 24.7317 0.987306 3.49916 28.2227 -1.49995 1.44418 
26.6855 0.746375 1.37876 28.6574 0.531872 3.47119 26.5687 -1.17548 3.6557 
30.5738 0.269044 1.1521 32.4766 -1.94472 1.22259 32.3121 0.134333 3.41496 
32.9089 1.97167 1.22977 30.7319 2.54275 3.27347 37.9637 -0.233292 1.38655 
37.9432 42.8583 3.44687 34.6753 0.00400272 1.48131 2.48976 1.82311 3.62522 
2.97719 3.914 1.77225 5.08209 5.74725 1.59059 5.00763 3.61143 -0.442646 
3.26613 5.98323 -0.449572 6.92288 3.37255 1.677 7.22364 5.43056 -0.325203 
4.97318 3.57657 3.62334 3.14625 5.96537 3.71157 9.29044 4.93869 1.48335 
11.0624 2.68718 1.71742 11.2152 4.79883 3.90045 9.1825 2.90591 3.63166 
14.7977 2.26834 1.74367 13.2093 4.56807 1.70177 15.3084 6.37991 1.67648 
12.9527 2.70459 3.8206 16.9234 4.13669 1.49407 17.1186 6.12514 -0.484649 
19.2122 5.95476 1.39913 16.7618 2.00515 3.61133 19.041 3.78971 3.616 
17.3651 6.13575 3.41331 20.9 3.67668 1.41587 22.9057 3.24076 3.40851 
21.2853 5.59023 3.50659 23.1236 5.32858 1.40825 24.7661 3.09873 1.31712 
25.2212 4.9835 3.49779 27.0522 4.8589 1.27498 26.9293 2.78781 3.29297 
28.867 2.71061 1.19945 28.8502 4.68864 3.31732 31.1126 4.10515 1.13179 
32.8598 4.44213 3.48609 36.3733 2.20861 1.54633 34.3224 2.0556 3.66137 
36.7784 6.25571 1.6153 34.6046 4.30757 1.24087 34.7411 6.50779 3.75597 
36.3268 4.13804 3.50536 2.6583 1.86428 -0.469798 36.744 4.29932 -0.486975 
3.46914 8.08341 1.55312 5.53538 9.73026 1.56081 5.4629 7.65499 -0.404052 
3.64441 10.0312 -0.318991 7.47666 7.12663 1.7053 11.3016 6.66439 1.71098 
9.51817 9.09795 1.68188 7.72151 9.33435 -0.433174 11.526 8.87742 -0.457986 
9.5632 6.98345 -0.540218 13.5051 6.6102 3.63618 13.3376 8.73836 1.56596 
15.7563 10.4051 1.47207 13.6502 10.6767 -0.687139 13.3136 6.62557 -0.383629 
15.4051 8.29709 -0.401905 17.5217 8.19541 1.37516 19.6338 9.80149 1.25054 
17.7495 10.1495 3.34945 19.5468 7.90294 3.64589 19.5454 7.9872 -0.718201 
17.567 9.98885 41.1353 21.3273 7.65145 1.38303 23.6979 9.29744 1.42809 
23.5166 7.23527 3.44271 21.7548 9.71133 3.2588 25.5109 7.18867 1.34645 
27.1984 6.98383 3.36285 27.8204 9.05011 0.991845 25.6434 11.1594 1.05145 
25.5837 9.26568 3.33259 29.0349 9.14967 3.67403 30.7818 6.73097 3.41688 
32.8649 6.63196 1.66452 29.1228 6.53501 1.23406 30.8898 8.87464 1.35501 
33.2128 10.8544 1.59996 32.8466 8.47286 -0.549523 31.0818 11.0601 -0.55808 
37.065 8.30529 -0.316077 36.8487 8.30468 3.48192 37.0892 10.3881 1.55527 
34.808 8.62211 1.54086 35.0224 10.6464 -0.456217 3.76689 11.9565 1.49695 
5.92357 11.6313 -0.564694 6.08051 13.6562 1.55435 3.95161 13.8454 -0.731494 
9.78562 11.0982 -0.461484 7.863 11.547 1.30494 9.79869 13.4747 1.30539 
9.76045 11.3299 3.48852 10.0997 15.2245 41.0352 8.0363 13.4016 41.1849 
11.9337 13.0256 -0.746104 11.8012 11.1727 1.51547 14.0639 12.7945 1.18361 
16.192 14.5332 0.99297 16.0427 12.1779 -0.652952 12.2225 15.0251 1.13121 
14.1385 14.6557 41.0734 17.9318 12.2514 1.26485 20.2826 13.9059 1.00444 
19.8734 12.1293 3.30361 21.7442 11.4529 1.25205 24.0426 11.5804 3.39902 
23.9455 13.3852 0.995909 22.0814 13.6578 3.06994 22.3396 15.7924 0.943893 
20.3946 15.8317 2.93 27.24 11.4928 3.55397 28.9802 11.3252 1.60017 
27.1713 13.6545 1.25744 27.4101 15.7152 41.074 29.0028 13.2693 -0.718259 
31.2952 13.0168 1.49979 29.443 15.3057 1.33368 31.4058 15.0268 41.1035 
33.3578 14.8455 1.25642 33.0954 12.8401 41.2088 35.2176 12.6997 1.43239 
37.3341 12.1977 -0.536234 37.3353 14.2424 1.42388 35.398 14.5334 -0.624615 
4.19971 15.8266 1.22248 6.16023 15.5048 -0.695225 6.14669 17.8044 1.19249 
4.27323 18.0367 41.1475 6.55555 19.6934 -0.672602 7.96658 15.602 1.28728 
10.5615 17.3281 1.22956 8.26509 17.3399 41.0918 8.61696 19.3452 1.0105 
10.7153 19.2581 -0.665082 14.4524 16.6308 0.857632 12.5346 17.0305 41.0311 
12.4945 19.1493 1.23604 18.3546 16.2904 0.895467 16.6147 18.4608 0.84607 
18.597 18.2779 3.22298 18.7909 20.3193 0.903189 16.8436 20.376 3.06127 
23.4976 16.1253 3.51025 20.4011 17.9915 0.887086 23.6004 18.2611 1.14522 
21.6135 18.4947 3.30634 23.4852 20.2373 41.1671 25.315 15.8281 1.03807 
27.6471 17.6088 1.08366 25.6976 19.805 1.12424 27.8205 19.5347 40.9865 
25.5487 17.8051 41.0597 31.5241 17.1492 1.46361 29.742 17.3645 -0.691084 
29.7346 19.3577 1.34371 31.903 19.0516 41.1823 33.6265 16.736 -0.716814 
37.7694 18.4086 1.55597 37.5496 16.322 -0.488637 35.5051 16.6546 1.44069 
33.7757 18.7909 1.36557 35.6741 18.528 -0.465232 4.42979 19.9345 1.14173 
6.77745 21.7719 1.25131 5.17239 24.0117 1.15571 4.58047 21.9438 40.9072 
2.78507 22.2283 1.21552 3.06688 24.0982 41.2128 7.11512 23.623 40.9901 
10.7269 21.2538 1.03536 9.01438 21.3972 40.872 9.15868 25.6026 40.9056 
9.19189 23.4311 1.1492 11.0709 25.2871 1.16615 14.749 20.6604 1.0602 
13.1919 23.1953 1.15787 15.3077 24.8102 0.888118 15.148 22.7091 3.13903 
13.3597 25.087 3.13443 17.1923 22.5987 1.2104 18.0861 22.8848 3.6764 
18.2094 25.1561 1.50055 19.9159 22.9065 1.41527 20.0285 24.8053 -0.512289 
21.5928 20.6771 1.4251 22.2135 24.4502 1.33649 24.0216 22.2991 1.43673 
24.2582 24.2743 41.2042 21.7738 22.6605 41.2028 27.8913 21.6958 1.42722 
26.2569 23.8468 1.36458 25.9907 21.9271 -0.584474 28.1779 23.4962 -0.650741 
31.8971 21.084 1.26573 30.2447 23.293 1.31833 29.9147 21.3005 40.9925 
32.1602 23.1695 -0.529249 36.205 20.7374 1.54547 34.0158 20.7918 -0.607734 
34.2617 22.9803 1.41211 36.2607 22.6265 41.2254 38.0159 20.2786 -0.692633 
5.52447 25.9065 41.1684 3.3655 26.2878 1.11375 3.63261 28.4231 41.2087 
5.64965 28.1106 1.03467 7.47967 25.9114 1.00697 9.35411 27.7749 1.24184 
7.64807 30.0917 1.16202 9.77548 29.6021 3.33778 13.4802 26.9232 0.784161 
11.8481 29.2189 1.19272 14.7495 29.4363 1.7257 14.6186 27.5518 3.66059 
11.5923 27.3526 3.42722 16.4493 27.1424 1.65251 16.4735 29.2012 -0.603942 
18.9411 28.9764 1.53025 18.2537 27.1404 -0.68136 20.6386 26.735 1.26258 
22.9547 28.3154 1.29564 22.7354 26.4451 41.0728 20.707 28.5895 41.0385 
24.7332 26.0947 1.25991 24.8948 28.0896 -0.737131 28.4756 25.6016 1.40681 
26.6471 27.9409 1.39289 28.7249 27.7197 41.1844 26.5293 25.9213 -0.620621 
32.3661 25.0021 1.38048 30.7377 27.4474 1.28176 30.311 25.2779 41.194 
32.6772 27.0832 41.1597 34.5262 24.8132 -0.61099 36.5418 24.6253 1.24236 
34.828 26.8198 1.16528 36.9566 28.5981 1.14847 36.781 26.5613 41.1084 
34.9987 28.8393 41.0505 5.95108 32.4197 1.12036 6.18412 34.3629 3.05331 
3.56895 30.3797 1.13788 3.94215 34.5932 1.02427 10.1507 31.2835 1.19195 
8.35919 33.7579 1.09834 8.02472 32.1421 3.18688 12.946 29.563 3.84848 
13.0712 31.7189 1.80345 14.9653 31.3816 -0.535262 15.5024 33.2414 1.6106 
15.0898 31.3962 3.88312 13.2314 33.7156 -0.353039 16.9939 31.2233 1.62451 
19.4724 32.6323 1.45505 18.916 30.5647 -0.5475 17.373 33.0538 3.68292 
21.1782 30.5614 1.42733 23.213 32.5161 1.38313 21.1663 32.4807 41.2032 
23.0787 30.3112 -0.679038 23.2184 30.3879 3.53431 21.4558 32.6408 3.4899 
28.9872 29.6971 1.25738 24.9695 30.0711 1.47944 26.792 29.8991 -0.653646 
27.2333 31.9883 1.3647 25.0689 32.1798 41.2295 29.0203 31.7728 40.898 
29.3352 33.7133 1.06996 32.9781 29.2369 1.14701 31.2709 31.4362 1.15205 
30.9808 29.5668 41.0767 33.3952 33.0919 0.978354 31.4414 33.4436 40.9289 
33.2014 31.0321 40.9063 35.2956 30.6936 1.09798 37.4231 32.5971 1.00618 
35.3823 32.6656 40.9448 37.2452 30.5967 40.9545 6.38302 36.1109 1.0664 
4.69077 38.3273 1.00376 4.35362 36.4125 3.16192 37.7886 36.7771 1.25751 
2.69478 38.7769 3.18978 9.37497 34.3744 3.82132 11.1613 33.9069 1.61241 
9.31971 36.3739 1.75701 7.5964 36.6869 3.79408 11.8469 37.8269 1.98139 
11.4878 35.9118 3.70592 11.4342 35.9925 -0.288476 13.7082 35.4778 1.77647 
15.7914 37.1548 1.47566 15.7802 35.092 -0.501697 13.2999 33.6128 3.72575 
13.9223 37.4655 3.61455 15.5936 35.1533 3.8202 17.6837 35.0402 1.72724 
19.5985 36.7385 1.52158 17.9178 36.9648 3.76364 21.4421 34.4677 1.33251 
23.6766 36.3813 1.46004 21.8441 36.6906 3.45128 23.6015 34.4263 3.46156 
25.3543 34.1365 1.51021 27.5312 35.7861 0.999381 25.9091 36.177 3.33549 
29.514 35.5429 3.12236 27.7274 37.6722 40.9414 31.5463 35.3499 1.05898 
33.4665 35.1383 41.0995 29.7516 37.4216 1.01968 29.461 35.5236 40.9871 
31.7257 37.3886 41.0973 33.7814 37.0422 1.05822 35.6221 34.7422 1.16264 
35.6794 36.8216 41.0336 5.68735 38.8105 3.59173 5.99273 40.7272 1.59321 
4.15066 40.9126 3.68696 2.8002 40.4531 1.09464 6.07034 42.7471 3.65999 
9.98921 40.2188 1.48642 7.72922 38.651 1.72799 8.26238 42.4231 1.68267 
9.60954 38.3789 3.80514 8.09247 40.6232 3.70556 10.2809 42.2052 3.65261 
14.0071 39.4474 1.66397 12.1581 39.9158 3.74414 12.3414 41.8048 1.52669 
14.3936 41.4289 3.65096 16.0222 39.2654 3.58694 17.9717 39.0445 1.46214 
16.3065 41.3956 1.61522 20.2924 41.0957 1.46254 18.245 41.2169 3.36305 
20.0363 38.9231 3.47836 21.9251 38.6876 1.52822 24.2021 40.4846 1.30047 
24.0608 38.4258 3.44808 22.3755 40.7982 3.54804 24.5737 42.4099 3.51089 
26.3094 42.0746 1.35335 28.2006 41.8795 3.33937 25.7658 38.0295 1.03726 
28.0634 39.6746 1.25061 26.1388 39.999 3.39955 30.0628 41.5827 1.13862 
31.7591 39.3654 1.02367 33.7168 39.097 3.33258 29.912 39.5317 41.043 
36.5194 -2.3532 1.14638 34.3185 -2.16441 3.28198 33.9174 39.285 41.2291 
36.0363 38.7971 1.26572 34.0708 41.179 1.25875 36.0719 41.0016 3.12822 
4.85352 1.8294 5.85855 4.33375 -0.41064 7.73042 6.72905 1.30227 7.74417 
6.55751 -0.425092 5.56982 4.11791 -2.38856 5.63871 6.04163 42.7523 7.76282 
[...]
POINT_DATA 4000
FIELD FieldData 6
id 1 4000 int
8 405 7 406 3 12 11 409 410 
16 15 413 414 20 19 59 418 417 
421 24 461 28 23 422 63 465 32 
67 469 426 36 35 434 75 473 4 
401 40 402 43 48 45 42 47 46 
445 442 52 51 450 449 55 56 95 
453 60 97 99 457 458 497 64 462 
501 103 68 505 72 466 71 470 76 
474 79 477 44 80 478 441 41 78 
83 88 85 82 87 91 92 86 90 
89 493 96 135 133 93 94 100 139 
537 498 98 137 104 108 502 541 107 
509 112 147 506 510 513 115 111 116 
120 114 153 81 481 84 119 118 123 
125 128 122 129 127 132 529 169 126 
130 131 136 175 134 171 173 140 144 
538 143 545 148 542 183 581 549 151 
152 189 150 155 156 154 160 157 159 
121 124 158 163 165 168 162 205 167 
172 166 207 209 176 170 211 179 180 
578 219 617 585 184 188 582 225 187 
191 192 190 186 195 193 196 194 197 
164 161 199 200 198 203 208 243 202 
204 241 245 212 206 249 247 251 215 
216 255 614 653 220 618 259 224 261 
223 228 227 226 222 231 232 229 230 
235 236 233 234 239 237 240 238 201 
242 244 281 283 248 252 287 689 256 
291 295 654 650 260 297 264 258 263 
268 265 262 267 266 271 272 270 269 
275 276 273 274 277 279 280 319 278 
317 288 725 284 323 292 327 686 693 
296 294 300 697 333 299 304 301 698 
303 308 302 305 705 702 311 307 309 
312 306 310 351 315 316 313 355 353 
314 320 359 357 318 328 363 722 324 
761 729 331 332 726 336 733 330 335 
340 337 694 734 737 339 344 738 343 
348 742 745 347 352 746 750 389 356 
354 391 350 393 395 360 358 765 368 
762 364 766 371 367 372 730 769 770 
375 773 376 774 777 379 380 384 778 
781 383 388 785 782 425 27 429 387 
392 786 31 396 794 390 39 437 397 
399 400 798 408 805 806 407 768 1166 
412 809 411 810 416 415 814 813 420 
419 459 817 818 821 424 428 463 865 
861 423 822 432 826 467 869 430 471 
436 440 830 438 802 403 439 801 443 
448 447 846 845 842 451 446 849 452 
850 454 455 456 854 495 853 857 460 
858 897 499 901 464 503 862 468 905 
472 507 866 909 475 476 480 404 479 
444 841 485 483 482 488 885 882 489 
490 486 487 889 492 886 491 890 494 
496 535 533 894 893 933 500 898 539 
937 941 504 902 543 508 511 512 906 
516 945 515 514 517 520 519 484 518 
881 918 522 525 523 925 528 922 526 
527 569 532 969 573 530 531 534 536 
571 934 577 540 575 977 579 938 544 
548 942 981 546 547 551 552 550 554 
557 555 553 556 560 558 521 559 524 
562 605 563 965 565 568 567 566 572 
607 609 570 613 576 611 1013 574 615 
580 978 584 583 588 586 587 589 591 
592 590 594 593 595 596 597 600 598 
599 561 564 602 641 603 608 643 604 
645 606 649 612 647 1010 610 616 651 
621 619 620 622 623 625 628 627 626 
1025 986 1026 630 629 631 632 1030 633 
634 635 636 637 601 639 638 640 642 
648 644 683 681 646 652 687 685 655 
656 657 624 661 659 664 1022 1061 665 
662 663 668 667 666 1065 1062 1066 669 
671 670 672 1069 675 674 673 676 715 
677 678 679 680 717 719 682 684 723 
721 1121 690 691 688 692 1125 1086 660 
695 700 1097 658 699 701 704 1058 1098 
1101 1105 703 708 707 1102 710 706 1109 
709 712 711 1106 1110 713 714 716 1113 
753 755 757 718 720 759 728 724 1122 
1161 727 696 731 1133 1094 735 736 1137 
740 1134 741 739 744 1141 743 1145 748 
1142 751 749 747 752 1189 789 1146 1149 
754 793 756 795 791 797 758 760 799 
1158 1197 763 767 764 732 772 1170 1169 
771 1130 775 776 1174 1177 1173 779 780 
1181 1178 784 783 788 1182 825 1185 427 
787 792 829 1186 790 433 431 796 435 
800 1162 808 803 807 1206 812 811 1210 
1209 816 815 1213 1214 820 859 824 819 
1218 1221 1217 828 1265 863 1222 1261 832 
1269 867 1226 871 836 873 1230 834 804 
840 839 843 848 1245 1242 847 1246 851 
852 1249 1250 1253 855 856 1254 860 1258 
1257 899 1297 864 903 1301 1262 868 1305 
872 907 1266 877 875 870 876 880 1274 
838 878 879 844 883 888 1285 887 891 
892 1290 1289 1286 1293 895 896 1294 1333 
935 900 939 1337 1298 904 1302 943 1341 
913 911 908 912 947 874 914 917 915 
916 920 884 919 1281 1318 923 928 1325 
1322 929 926 927 931 932 1326 1329 1369 
930 1330 936 1334 971 973 975 940 979 
1338 1377 944 948 946 983 910 949 951 
952 950 954 957 955 953 956 960 1357 
1354 921 958 924 959 962 963 1365 968 
966 1009 967 972 1007 970 1011 976 1370 
1413 974 1017 1015 980 1019 1374 985 987 
984 982 988 989 990 992 991 1390 993 
997 994 995 996 1000 961 1361 998 999 
964 1005 1002 1045 1003 1008 1043 1004 1006 
1049 1012 1406 1047 1449 1053 1016 1055 1051 
1410 1014 1021 1018 1020 1024 1023 1028 1027 
1426 1429 1029 1032 1031 1033 1034 1035 1036 
1001 1037 1038 1039 1040 1401 1041 1042 1048 
1044 1081 1083 1046 1089 1052 1087 1085 1485 
1054 1057 1050 1056 1091 1060 1493 1059 1064 
1063 1068 1067 1465 1462 1466 1071 1072 1070 
1470 1073 1074 1075 1076 1473 1077 1078 1079 
1080 1117 1119 1082 1084 1123 1521 1482 1088 
1092 1127 1093 1095 1096 1100 1099 1498 1501 
1104 1103 1108 1107 1505 1502 1506 1509 1112 
1510 1111 1151 1153 1115 1114 1116 1155 1514 
1513 1553 1118 1120 1159 1157 1124 1128 1163 
1090 1129 1131 1132 1136 1135 1534 1140 1537 
1139 1138 1144 1538 1541 1143 1148 1545 1542 
1147 1152 1589 1549 1550 1187 1546 1154 1150 
1156 1554 1191 1195 1193 1160 1199 1558 1597 
1126 1165 1168 1164 1167 1171 1172 1570 1573 
1175 1176 1574 1577 1180 1179 1184 1581 1578 
823 1183 1188 1585 1225 1582 827 1192 1229 
1586 1190 833 831 1233 1590 1196 835 1194 
1198 837 1200 1594 1202 1205 1208 1204 1641 
1212 1610 1207 1211 1216 1215 1614 1613 1220 
1618 1224 1259 1219 1617 1621 1228 1263 1665 
1661 1622 1267 1232 1271 1626 1234 1273 1236 
1275 1238 1240 1279 1277 1247 1243 1248 1649 
1251 1252 1650 1646 1653 1255 1256 1654 1657 
1260 1658 1299 1697 1264 1268 1303 1662 1705 
1701 1309 1272 1307 1669 1666 1311 1270 1313 
1276 1315 1241 1278 1244 1280 1717 1282 1283 
1288 1685 1682 1291 1287 1689 1292 1686 1690 
1729 1693 1295 1296 1694 1733 1335 1300 1698 
1339 1737 1345 1304 1308 1343 1306 1310 1312 
1347 1349 1314 1317 1316 1351 1320 1319 1284 
1323 1328 1725 1327 1332 1367 1331 1769 1726 
1373 1371 1730 1336 1734 1773 1375 1340 1379 
1344 1342 1348 1383 1381 1385 1346 1352 1350 
1387 1355 1353 1356 1360 1358 1321 1721 1324 
1359 1758 1362 1405 1363 1368 1403 1805 1762 
1366 1409 1372 1407 1809 1411 1376 1415 1770 
1378 1417 1380 1419 1421 1382 1384 1388 1423 
1391 1389 1386 1392 1393 1397 1394 1395 1396 
1794 1797 1399 1761 1364 1398 1400 1798 1402 
1441 1445 1408 1404 1841 1443 1802 1845 1412 
1451 1447 1806 1414 1453 1416 1455 1457 1418 
1420 1459 1422 1425 1424 1428 1430 1427 1431 
1432 1830 1435 1433 1434 1436 1833 1801 1439 
1437 1438 1440 1479 1838 1442 1481 1448 1444 
1483 1842 1881 1489 1446 1452 1487 1450 1454 
1491 1456 1495 1461 1458 1460 1464 1858 1897 
1463 1468 1467 1866 1469 1472 1471 1869 1870 
1475 1474 1476 1874 1873 1478 1517 1477 1877 
1480 1519 1488 1525 1523 1484 1486 1492 1529 
1527 1494 1490 1496 1531 1497 1894 1499 1500 
1504 1503 1508 1905 1507 1906 1902 1511 1512 
1910 1909 1913 1515 1516 1555 1914 1953 1518 
1557 1520 1559 1957 1565 1522 1528 1524 1561 
1563 1530 1526 1532 1567 1533 1535 1536 1540 
1539 1941 1544 1938 1543 1548 1945 1942 1547 
1946 1552 1587 1949 1551 1950 1593 1556 1591 
1993 1954 1595 1560 1599 1566 1201 1203 1562 
1568 1564 1569 1571 1572 1966 1575 1576 1974 
1580 1977 1579 1978 1584 1981 1583 1223 1588 
1985 1625 1982 1989 1227 1986 1592 1629 1235 
1990 1231 1596 1237 1598 1239 1600 1602 1604 
1643 2041 1606 1609 1608 1612 1611 1616 2014 
1615 1620 1619 2018 1624 1659 2017 2061 1628 
1663 2022 1630 1632 1631 2030 1671 1673 1634 
1636 1675 1633 2034 2073 1677 1638 1640 1679 
1642 1645 1648 1644 1647 1651 1652 2050 1655 
1656 1695 2053 2054 2057 1660 2097 2058 1699 
1664 1668 1703 2065 2062 1709 1667 1672 1707 
2066 1713 1670 1711 1674 1676 1715 1678 1680 
1719 2078 2117 1683 1688 2082 2089 1687 1692 
2086 1691 2129 2093 1696 2094 1735 2090 1731 
2133 1741 1700 2098 1704 1739 1702 1745 1708 
1743 1749 1706 1712 1747 1710 1753 1714 1716 
1755 1751 1681 1684 1718 1720 2118 1722 1765 
1723 2125 1728 2122 2165 1727 1732 1767 2126 
2169 1736 1771 2130 1775 2137 1738 1740 1779 
1744 1777 1742 1748 1783 1785 1781 1746 1752 
1789 1787 1750 2150 1754 1756 1791 1759 1757 
1724 1760 1763 1768 2162 2205 1766 1772 1807 
1811 2166 1813 1776 1774 1815 1817 1780 1778 
1819 1821 1782 1784 1788 1823 2221 1786 1825 
1790 1792 1827 1793 1795 1796 1764 1799 1800 
2198 1803 1808 1843 1804 2202 1810 1849 1812 
1847 1851 1814 1816 1855 1853 1818 1857 1820 
1859 2218 1822 1861 1824 1863 2222 1831 1828 
1826 1829 1832 2265 2237 1835 1834 1836 2234 
2201 1839 1837 1840 2238 1885 1848 1883 1844 
1846 1852 1889 1887 1850 1854 1856 1895 1893 
1891 2293 1860 1899 1862 1865 1864 1868 1871 
1867 1872 2270 1875 1876 2273 2274 1917 1878 
2277 1879 1880 1919 1882 1888 1923 1925 1929 
1886 1892 1927 1890 1931 1896 1933 1898 1935 
1900 1901 1904 1903 1908 1907 1912 2306 2309 
1911 2310 1915 1916 1955 2314 2313 1918 1921 
1884 1920 2317 1922 1961 1928 1963 1924 1965 
1926 1932 1969 1967 1934 1930 1936 1971 1937 
1939 1940 1944 1943 2345 1948 2342 1947 2349 
1952 2346 1951 1987 2353 2350 1956 1991 1959 
1958 1960 1999 1962 1605 1603 1968 1964 1601 
1970 1607 1972 2366 1973 1975 1976 1980 1979 
2021 1984 2381 2378 1983 2385 1623 2025 1988 
2382 1627 1992 2386 2389 1994 1995 1635 1996 
2394 2033 1637 1639 1997 1998 2000 2002 2043 
2004 2008 2045 2006 2012 2047 2445 2449 2010 
2016 2015 2414 2020 2418 2059 2019 2421 2024 
2028 2425 2027 2422 2029 2026 2032 2031 2069 
2429 2426 2469 2036 2433 2434 2071 2075 2430 
2473 2038 2077 2040 2079 2042 2044 2083 2481 
2081 2442 2049 2046 2048 2485 2052 2446 2055 
2051 2091 2056 2454 2453 2450 2095 2457 2060 
2064 2101 2458 2461 2465 2063 2068 2105 2109 
2067 2072 2107 2509 2074 2470 2070 2076 2111 
2115 2113 2474 2513 2080 2119 2085 2088 2482 
2521 2084 2087 2489 2092 2486 2127 2493 2490 
2096 2131 2494 2099 2100 2104 2497 2103 2102 
2145 2108 2143 2106 2506 2112 2149 2147 2549 
2114 2110 2151 2116 2153 2553 2514 2120 2155 
2157 2159 2518 2123 2525 2128 2163 2522 2561 
2529 2132 2167 2526 2530 2134 2135 2136 2533 
2141 2138 2139 2140 2179 2181 2185 2144 2142 
2148 2183 2585 2146 2189 2187 2152 2589 2546 
2156 2193 2191 2550 2121 2154 2124 2158 2160 
2195 2554 2558 2168 2565 2562 2170 2172 2171 
2213 2173 2175 2174 2176 2215 2177 2178 2180 
2217 2219 2182 2184 2223 2225 2582 2188 2186 
2192 2629 2227 2229 2625 2190 2231 2194 2196 
2633 2161 2199 2197 2164 2200 2598 2207 2203 
2208 2209 2206 2212 2210 2211 2610 2214 2216 
2255 2251 2253 2257 2220 2259 2261 2224 2263 
2661 2228 2226 2230 2232 2267 2669 2233 2235 
2236 2630 2601 2239 2204 2240 2638 2245 2242 
2243 2248 2283 2241 2285 2289 2246 2247 2249 
2252 2287 2250 2254 2256 2295 2291 2297 2258 
2260 2299 2264 2301 2262 2303 2271 2268 2269 
2266 2272 2275 2276 2674 2244 2278 2279 2280 
2677 2325 2282 2288 2323 2321 2329 2286 2292 
2327 2686 2729 2290 2333 2296 2331 2694 2733 
2294 2335 2298 2337 2300 2339 2305 2302 2304 
2308 2311 2307 2312 2710 2713 2315 2316 2281 
2318 2284 2319 2320 2365 2322 2328 2324 2363 
2361 2326 2332 2369 2367 2373 2330 2336 2371 
2338 2377 2334 2375 2340 2341 2343 2344 2348 
2749 2347 2351 2352 2387 2746 2354 2355 2356 
2397 2359 2358 2357 2360 2399 2797 2001 2362 
2003 2364 2762 2005 2368 2009 2007 2372 2409 
2013 2374 2370 2011 2376 2770 2379 2380 2384 
2785 2023 2383 2388 2782 2390 2392 2391 2790 
2393 2035 2793 2395 2396 2039 2037 2398 2400 
2798 2437 2402 2441 2802 2404 2443 2841 2408 
2406 2412 2806 2845 2447 2410 2451 2416 2853 
2810 2849 2420 2424 2818 2428 2825 2423 2822 
2432 2427 2826 2829 2830 2431 2436 2834 2475 
2471 2873 2833 2438 2477 2440 2479 2877 2838 
2444 2881 2842 2483 2448 2885 2487 2846 2889 
2455 2452 2456 2850 2857 2854 2460 2459 2464 
2462 2505 2463 2468 2865 2466 2467 2472 2507 
2869 2866 2909 2511 2476 2874 2515 2870 2478 
2517 2480 2878 2519 2917 2523 2484 2921 2882 
2925 2488 2492 2886 2890 2491 2495 2496 2500 
2501 2498 2499 2504 2545 2503 2905 2502 2902 
2508 2945 2512 2547 2906 2949 2510 2516 2551 
2914 2910 2953 2555 2520 2918 2557 2559 2957 
2528 2524 2922 2599 2961 2965 2527 2531 2532 
2926 2535 2536 2534 2934 2538 2537 2539 2937 
2541 2540 2579 2941 2543 2544 2542 2942 2548 
2583 2581 2981 2985 2587 2552 2989 2591 2593 
2556 2993 2597 2595 2560 2958 2954 2997 2563 
2568 2567 2566 2571 2569 2570 2572 2573 2613 
2575 2574 2576 2615 2974 2617 2577 2578 2580 
2619 2977 2978 3017 2584 2623 2588 2621 2586 
2592 2627 3029 2986 3025 2590 2596 2631 3033 
2990 2594 2994 2635 2564 2600 2602 2605 2603 
2608 2607 2606 2611 2609 2612 3010 3013 2614 
2616 3014 3053 2651 2655 2653 2618 2657 2620 
2659 3018 2624 2622 2663 3061 2626 2628 2632 
2667 2665 3026 3069 2634 2636 2671 2675 3030 
2637 2639 2604 2640 2643 2645 2642 2648 2647 
2649 2646 2652 2687 3049 2689 2654 2650 2656 
2691 2693 3054 2658 2697 2660 2695 2699 3097 
2701 2664 2662 2703 3062 2705 2709 2668 2666 
2672 2707 3066 2673 2670 2676 2680 2711 2641 
2678 2644 2679 2682 2685 2683 2688 2723 2725 
3125 2692 2727 2690 2696 2731 3133 2735 2698 
2700 2737 2739 3094 3098 2704 2741 2702 2743 
2744 2706 2708 2712 2747 2714 2717 2715 2716 
2681 2721 2684 2718 2719 2720 2761 2722 2765 
2728 2763 2724 3122 2726 2732 2767 2769 2730 
2773 2736 2771 3173 2734 2775 3134 2777 2740 
3177 2780 2781 2745 2742 2738 2779 2748 2783 
2750 2752 2751 2753 2754 2755 2756 3154 2757 
2758 2759 2760 2799 3121 2401 2801 2403 3162 
2764 2405 2768 2766 2407 2809 2772 2413 2411 
2776 3170 2778 2417 2415 2774 2419 3174 2786 
2784 2788 2787 2789 2792 2791 2794 2435 2795 
2796 3194 2439 2837 2800 3198 3197 2804 2843 
3241 3202 2808 3245 2812 3206 2847 3249 2851 
2816 3210 3214 2814 2820 2819 2821 2824 2828 
2823 3225 3222 2832 3229 2827 3226 2831 2836 
2875 3273 3233 2871 2835 3234 2840 2879 3238 
3277 2844 2883 3242 3281 2848 2852 2887 2891 
2856 2855 2860 2893 2858 2861 3261 2859 3258 
2864 2862 2863 2868 3262 3265 2867 3269 3266 
2872 3309 2876 2913 2915 2911 3274 3270 3313 
2880 2919 3278 3317 2884 2923 2959 2888 2892 
2929 2927 2894 2895 2896 2897 3297 3294 2901 
2899 3301 2898 2900 2904 3298 2903 3302 2908 
3305 3345 2907 2912 2947 3306 3349 3310 2916 
3353 2951 3314 2955 2920 3318 3357 2928 2924 
2963 2930 2932 2931 2933 2936 2935 3334 2939 
2938 2940 2979 3341 3337 3338 2943 2944 2948 
3342 2983 3385 3381 2946 2952 3346 3389 2987 
2950 2956 2991 3350 3393 2995 2960 2999 3354 
2966 2967 2962 2968 2964 2969 2972 2971 2970 
2975 2973 2976 3015 3374 2980 3019 3378 3377 
3417 3021 2982 2984 2988 3382 3023 3421 3425 
2992 3027 3429 3386 2996 3031 3390 2998 3037 
3035 3000 3039 3002 3003 3005 3008 3006 3009 
3409 3007 3012 3410 3011 3413 3016 3414 3051 
3055 3020 3059 3057 3457 3022 3024 3063 3461 
3065 3028 3465 3426 3032 3067 3071 3036 3073 
3075 3034 3001 3038 3004 3040 3045 3042 3445 
3043 3048 3442 3089 3046 3047 3052 3087 3050 
3093 3056 3091 3095 3450 3493 3058 3060 3099 
3497 3458 3101 3064 3103 3462 3501 3105 3109 
3068 3072 3107 3111 3074 3070 3076 3077 3080 
3078 3079 3041 3044 3082 3085 3083 3088 3123 
3525 3086 3129 3092 3486 3127 3090 3096 3131 
3494 3533 3135 3137 3100 3139 3537 3498 3141 
3102 3104 3143 3110 3108 3106 3112 3145 3113 
3115 3117 3114 3116 3120 3081 3084 3118 3119 
3161 3165 3128 3522 3124 3561 3163 3565 3126 
3132 3167 3169 3569 3530 3130 3136 3573 3171 
3534 3175 3140 3179 3142 3181 3146 3138 3144 
3148 3149 3150 3147 3152 3151 3550 3153 3155 
3156 3157 3159 3158 3160 3558 2803 3168 3562 
3164 3201 2805 3166 3205 2807 3209 3172 3566 
2811 2815 3570 2813 3176 2817 3178 3180 3184 
3185 3182 3183 3221 3188 3187 3586 3189 3186 
3190 3589 3192 3191 3590 3193 3195 3196 3594 
3199 2839 3200 3237 3598 3602 3204 3641 3645 
3243 3208 3212 3247 3606 3216 3614 3215 3217 
3218 3220 3219 3618 3224 3661 3228 3622 3621 
3232 3626 3231 3227 3630 3629 3230 3236 3235 
3275 3633 3634 3240 3638 3677 3279 3248 3283 
3244 3285 3246 3251 3252 3650 3255 3250 3254 
3253 3256 3653 3259 3257 3260 3264 3657 3263 
3662 3268 3665 3669 3267 3272 3666 3673 3271 
3311 3276 3713 3670 3674 3315 3280 3319 3678 
3717 3282 3321 3288 3284 3289 3286 3287 3292 
3291 3290 3295 3293 3296 3299 3300 3304 3701 
3698 3705 3303 3308 3702 3307 3312 3749 3347 
3709 3706 3351 3316 3710 3753 3355 3714 3320 
3359 3325 3323 3322 3328 3329 3326 3327 3332 
3330 3367 3331 3333 3335 3336 3734 3339 3340 
3737 3738 3741 3343 3745 3344 3348 3383 3785 
3742 3352 3387 3746 3789 3356 3391 3395 3750 
3793 3358 3397 3324 3360 3361 3362 3366 3365 
3363 3368 3403 3371 3369 3372 3370 3770 3373 
3375 3376 3415 3774 3773 3379 3380 3419 3777 
3778 3781 3384 3423 3782 3821 3388 3825 3392 
3786 3427 3433 3396 3431 3394 3364 3398 3399 
3400 3437 3402 3406 3405 3408 3404 3407 3412 
3810 3411 3813 3453 3451 3416 3455 3853 3418 
3420 3459 3818 3857 3424 3861 3422 3463 3822 
3469 3428 3432 3467 3430 3434 3435 3436 3401 
3438 3439 3440 3477 3479 3443 3448 3842 3447 
3446 3449 3452 3489 3487 3889 3849 3454 3456 
3495 3491 3854 3850 3893 3460 3499 3897 3858 
3464 3468 3503 3505 3471 3470 3466 3472 3513 
3475 3474 3473 3476 3515 3478 3441 3444 3480 
3485 3482 3483 3488 3523 3529 3492 3527 3929 
3886 3531 3490 3496 3933 3890 3500 3539 3535 
3894 3541 3502 3504 3508 3509 3511 3506 3549 
3507 3512 3514 3517 3510 3551 3516 3518 3481 
3484 3519 3520 3881 3528 3965 3524 3563 3922 
3961 3526 3532 3926 3567 3969 3536 3571 3575 
3930 3538 3540 3577 3544 3545 3542 3543 3548 
3546 3547 3552 3949 3587 3553 3555 3554 3556 
3557 3521 3559 3560 3958 3601 3203 3564 3962 
3568 3605 3207 3572 3966 3574 3213 3211 3576 
3581 3579 3578 3580 3978 3584 3582 3223 3625 
3585 3583 3985 3588 3982 3591 3592 3593 3595 
3596 3597 3239 3637 3599 3997 3600 3998 6 
2 3608 3604 3643 10 9 3610 3612 3611 
3613 13 14 3616 3615 21 3617 18 3620 
3659 3619 17 3624 61 22 3628 3663 26 
30 3632 3631 65 34 33 3636 3675 3635 
38 77 3640 3679 3642 3681 3648 3644 49 
50 3649 3647 3646 3652 3651 3654 53 54 
3655 3656 3658 57 58 3660 3699 3664 101 
62 3668 69 66 3667 3672 70 73 113 
74 3671 3676 3715 3711 117 3680 3719 3685 
3682 3683 3688 3687 3689 3686 3692 3691 3693 
3694 3690 3695 3696 3735 3697 3700 3704 105 
102 3703 3708 145 109 3707 106 149 3712 
3747 110 3716 3751 3755 3718 3757 3684 3720 
3725 3723 3722 3728 3726 3729 3727 3732 3733 
3730 3731 3771 3736 3739 138 3740 177 141 
3744 3743 185 181 142 3748 3783 146 3752 
3787 3754 3756 3791 3760 3758 3759 3721 3724 
3765 3805 3763 3762 3768 3803 3766 3769 3767 
3772 3807 174 3775 3776 3815 178 217 3779 
3817 3780 3819 182 3784 3788 221 3823 3829 
3792 3827 3790 3794 3795 3796 3800 3764 3797 
3761 3799 3798 3841 3802 3808 3843 3804 3806 
3809 3812 210 3811 3851 213 214 3814 3816 
3855 253 218 257 3820 3859 3865 3824 3828 
3863 3826 3830 3831 3832 3833 3834 3835 3836 
3801 3837 3838 3839 3840 3879 3845 3848 3844 
289 246 3846 3847 3852 3887 254 250 293 
3856 3891 3895 3860 3899 3901 3864 3862 3868 
3867 3870 3869 3871 3866 3872 3873 3874 3875 
3876 3913 3915 3877 3878 3917 3880 3919 282 
285 3925 3883 3885 3882 3888 325 3923 329 
286 3892 3927 3931 290 3896 3935 298 3898 
3937 3900 3904 3902 3905 3903 3908 3907 3906 
3909 3912 3911 3914 3953 3910 3916 3951 3955 
3884 3918 3920 321 365 322 3928 3924 3963 
361 326 369 3932 3967 334 3934 3973 3936 
3971 3940 338 3938 341 3939 3944 3941 342 
345 3945 3942 3943 3948 346 349 3946 3989 
3947 3952 3987 3954 3950 3956 3991 3921 3959 
3957 3960 3603 1 5 362 3968 3964 366 
3609 3607 3972 370 374 377 3970 373 3975 
3976 3974 3977 378 381 3981 3979 3980 3984 
25 385 382 3623 3983 3988 386 3986 3990 
29 3627 3992 3994 3993 394 3995 3996 3639 
3999 398 37 4000 
type 1 4000 int
1 1 1 1 1 1 1 1 1 
1 1 1 1 1 1 1 1 1 
1 1 1 1 1 1 1 1 1 
1 1 1 1 1 1 1 1 1 
1 1 1 1 1 1 1 1 1 
1 1 1 1 1 1 1 1 1 
1 1 1 1 1 1 1 1 1 
1 1 1 1 1 1 1 1 1 
1 1 1 1 1 1 1 1 1 
1 1 1 1 1 1 1 1 1 
1 1 1 1 1 1 1 1 1 
1 1 1 1 1 1 1 1 1 
1 1 1 1 1 1 1 1 1 
1 1 1 1 1 1 1 1 1 
1 1 1 1 1 1 1 1 1 
1 1 1 1 1 1 1 1 1 
1 1 1 1 1 1 1 1 1 
1 1 1 1 1 1 1 1 1 
1 1 1 1 1 1 1 1 1 
1 1 1 1 1 1 1 1 1 
1 1 1 1 1 1 1 1 1 
1 1 1 1 1 1 1 1 1 
1 1 1 1 1 1 1 1 1 
1 1 1 1 1 1 1 1 1 
1 1 1 1 1 1 1 1 1 
1 1 1 1 1 1 1 1 1 
1 1 1 1 1 1 1 1 1 
1 1 1 1 1 1 1 1 1 
1 1 1 1 1 1 1 1 1 
1 1 1 1 1 1 1 1 1 
1 1 1 1 1 1 1 1 1 