# vtk DataFile Version 4.0
Generated by LAMMPS
ASCII
DATASET POLYDATA
POINTS 4000 float
4.72166 -0.932078 3.56074 6.37752 -1.18321 1.6354 4.38978 -2.85179 1.50238 
6.39981 -3.19874 3.66271 4.70137 -0.626072 40.9401 6.31928 -3.19171 40.9932 
10.4175 -1.8026 1.56017 8.47784 -1.40105 3.69065 10.6685 0.181743 3.62539 
8.13139 -3.35628 1.51651 10.1483 -3.83643 3.65584 10.3618 0.248128 41.0464 
12.3947 -0.0293349 1.57947 14.1143 -2.61633 1.57192 12.2371 -2.15361 3.63784 
14.3003 -0.211925 3.42091 12.4074 -2.30145 40.9399 14.3535 -0.283859 41.0866 
16.2577 -0.980215 1.50139 17.9566 -3.2282 1.36614 18.1715 -1.3974 3.78333 
19.7877 -3.60424 3.6623 15.8524 -2.73652 3.46041 20.0479 -3.66182 41.0209 
16.0642 -2.79469 40.9097 18.2174 -1.34983 41.0275 20.1805 -1.60336 1.53728 
24.0214 -2.29702 1.55804 22.0311 -1.95077 3.48903 24.2122 -0.347054 3.70478 
22.2458 0.357696 1.79608 22.1834 -1.91422 -0.482629 27.7974 -3.13073 1.41539 
26.2826 -0.784866 1.75767 28.3187 -1.18672 3.64459 25.9979 -2.65671 3.80332 
26.0414 -2.72118 -0.528846 24.448 -0.35481 41.1734 30.2949 -1.55748 1.43165 
31.9475 -1.94482 3.68659 29.812 -3.56041 3.77864 29.8787 -3.45851 40.8116 
32.4072 0.24919 1.63941 32.2253 -1.97143 41.2258 36.1696 -0.308302 1.5834 
33.9662 -2.11144 1.60752 35.7181 -2.45722 3.70354 34.1127 -0.184984 3.71605 
34.2935 -0.257707 41.0583 4.74128 1.29188 1.58676 6.9711 2.91894 1.68881 
6.69445 0.994071 3.63056 5.0586 3.38141 3.78737 5.27849 3.20474 41.1001 
7.01297 0.683194 40.9792 8.70716 0.428595 1.58578 9.18743 4.77254 1.3491 
10.7459 2.35298 1.47796 8.85554 2.70028 3.52233 10.9925 4.32964 3.6009 
8.918 2.67622 41.029 14.578 1.67943 1.47598 12.9713 4.16447 1.56105 
12.6456 2.15426 3.65206 14.9906 3.6949 3.48713 15.0905 3.61645 -0.619248 
12.5789 2.09208 41.0497 18.5882 0.806441 1.6096 17.0254 3.12152 1.50408 
18.8019 2.87215 3.52462 16.7658 1.11248 3.55794 19.2452 4.87646 1.454 
20.3338 0.379386 41.0595 20.2729 0.353608 3.72951 20.5392 2.46812 1.39291 
22.8694 4.05147 1.41373 22.55 2.11601 3.61186 20.9119 4.3895 3.76916 
22.7704 1.96549 41.1024 21.0416 4.49332 40.7642 24.6573 1.58055 1.68569 
26.817 3.33382 1.56541 28.6155 0.861308 1.77989 24.8656 3.65443 3.53752 
26.7099 1.18363 3.76738 26.7916 1.16975 -0.459763 24.9654 3.71381 41.0042 
30.571 0.577098 3.47567 30.7106 2.77844 1.56774 28.6609 3.10585 3.67927 
32.5777 2.35107 3.79676 32.7314 4.41822 1.68695 30.904 4.84448 3.61547 
32.6518 2.31988 41.1292 28.9245 3.08761 -0.4151 31.0259 4.56121 -0.462923 
36.5666 3.83932 1.62767 34.5828 1.96705 1.50276 36.3226 1.50277 3.81315 
34.6326 3.94685 3.46181 34.6924 4.19197 41.0949 7.24531 5.03184 3.58943 
5.4179 5.32901 1.62526 3.82281 7.82282 1.44193 5.59071 7.56593 3.41918 
7.47261 7.29102 1.55242 7.84758 9.06064 3.67845 11.4303 6.32106 1.49041 
9.65515 8.79548 1.47752 9.50257 6.72488 3.5179 9.53556 6.78043 -0.681069 
11.5933 8.42864 3.4864 11.6704 8.48076 41.0825 15.2978 5.60861 1.47531 
13.4677 7.9492 1.5664 13.2858 6.06992 3.53801 15.5626 7.73169 3.53608 
17.5838 7.23156 1.37267 19.8372 8.79273 1.43861 17.1559 5.34084 3.446 
19.5413 6.84591 3.70918 17.7753 9.17453 3.47485 21.3534 6.3789 1.53058 
23.5036 8.03156 1.65787 23.2765 5.91237 3.60955 21.5751 8.45015 3.54269 
21.5776 8.4413 40.8879 25.1993 5.69755 1.57868 27.0071 5.14601 3.87278 
27.251 7.45284 1.43354 25.4138 7.69568 3.762 27.0714 5.43583 -0.49161 
25.2838 7.87471 41.0984 31.1295 6.79944 1.57375 29.0673 5.02985 1.5243 
31.3717 8.84045 3.67273 29.2817 7.0646 3.46445 29.47 9.07463 1.6734 
31.4121 8.95982 40.9791 36.6918 5.81852 3.64923 34.8037 6.04183 1.66733 
33.2889 8.47762 1.48967 32.8703 6.40662 3.62087 35.0508 8.12736 3.47249 
36.9253 5.77321 41.109 35.337 8.18899 41.0233 5.87937 9.62303 1.74767 
4.24623 11.8757 1.45375 3.80719 9.80453 3.57744 6.10518 11.4173 3.70491 
4.04269 9.84659 40.7163 7.93311 11.2304 1.58576 10.2667 12.6959 1.68531 
8.31147 13.3379 3.57651 10.0868 10.7918 3.4746 11.966 10.4569 1.52617 
14.0438 12.0294 1.5553 13.8836 10.1154 3.36728 15.7274 9.54634 1.31358 
12.2024 12.3513 3.45924 15.9203 11.5556 41.0189 16.1819 11.6542 3.40788 
17.843 11.297 1.41071 19.8599 10.9233 3.4354 18.1712 13.3043 3.59603 
20.0774 12.815 1.52362 18.3994 13.2208 -0.68885 21.797 10.5505 1.56868 
23.7199 10.2087 3.54461 24.0871 12.2196 1.46487 22.1547 12.5906 3.49772 
22.2274 12.6244 -0.427803 25.6931 9.95598 1.51853 27.8899 11.7766 1.54816 
25.8725 12.041 3.46837 27.389 9.71356 3.62055 27.7048 9.61011 -0.511618 
26.0205 11.8526 -0.670489 31.5427 10.9218 1.48735 30.0898 13.5158 1.60481 
29.57 11.432 3.56825 31.8025 13.0438 3.67886 29.7348 11.3327 41.0926 
35.3565 10.1781 1.49545 33.627 12.6403 1.6716 33.4044 10.5784 3.48331 
35.5297 12.2716 3.69498 33.4545 10.614 -0.531825 6.39922 13.5811 1.64799 
4.24211 13.8772 3.72794 4.87549 15.9823 1.58425 7.00012 17.6067 1.67846 
6.61564 15.6096 3.52813 8.64427 15.0975 1.32899 10.9235 16.8765 1.39091 
10.5482 14.7079 3.43609 8.82587 16.9655 3.4538 12.2778 14.4073 1.53186 
14.6412 16.0957 1.33279 14.4755 14.0044 3.53556 12.7797 16.4239 3.41123 
14.4183 14.0103 -0.653596 16.3631 13.4708 1.37457 18.6738 15.1614 1.50736 
18.855 17.2363 3.77689 16.5055 15.8701 3.51367 16.9334 17.6196 1.53224 
18.7685 17.3782 40.9433 16.6132 15.5472 41.0896 22.3426 14.5087 1.45834 
20.7018 16.883 1.47826 20.4916 15.0513 3.46336 22.5086 16.6152 3.66735 
24.2312 14.1397 3.58644 20.5261 14.9993 40.9092 22.6938 16.6401 -0.599025 
24.4398 16.3 1.59522 27.9421 13.8509 3.4516 26.1407 14.1542 1.56407 
26.4145 16.1286 3.60445 28.3138 15.7159 1.45583 28.5948 17.7438 3.53519 
28.0776 13.6384 -0.421099 26.471 16.0699 -0.59733 32.41 15.0053 1.50923 
30.6557 17.4117 1.41575 32.5041 16.779 40.875 30.2094 15.5615 3.59338 
32.3317 17.0399 3.60906 30.243 15.2271 -0.526487 35.8841 14.2117 1.68404 
34.285 16.8053 1.67936 36.0786 16.5489 3.73002 33.9418 14.8208 3.53726 
5.2221 20.1142 1.59936 7.03042 19.8259 3.47164 5.47156 22.1587 3.68051 
7.54191 21.595 1.35776 4.89862 17.9916 3.69677 7.07354 19.6309 -0.406941 
9.23423 19.1734 1.49771 11.2943 20.7612 1.3807 11.0377 18.6662 3.61675 
9.37752 21.1275 3.46368 9.44911 21.3296 -0.559734 13.1493 18.4903 1.28402 
15.3026 20.2321 1.40696 14.836 18.1615 3.36398 13.1495 20.4205 3.32172 
15.0416 18.0624 -0.637557 15.476 22.1252 3.48245 18.9063 19.3003 1.53442 
19.2458 21.3585 3.79207 17.5018 21.8884 1.65459 16.9369 19.6283 3.48413 
22.9468 18.5692 1.6272 20.9557 18.8922 3.52542 21.0462 21.1535 1.62375 
23.0463 20.8286 3.61838 20.9435 19.0813 -0.273819 26.5015 18.2935 1.59433 
24.9307 20.3558 1.54593 27.14 22.2615 1.77186 24.6655 18.4426 3.71694 
26.8442 20.2404 3.62394 27.0265 20.0645 -0.588542 28.7201 19.7455 1.62274 
30.4777 19.4841 40.8454 30.8466 21.5624 1.45447 32.5768 19.0439 1.45605 
30.6653 19.5875 3.7156 29.0658 21.9425 3.61285 32.8512 21.1795 3.64952 
36.2721 18.5644 1.64308 34.7451 20.7301 1.54107 36.6429 20.3425 3.84862 
34.4428 18.8626 3.74478 32.7214 21.1826 40.8801 6.04221 23.9053 1.66469 
6.1937 25.9937 3.62012 7.67308 23.6987 41.0092 3.84772 24.5441 3.50734 
4.14575 26.5244 1.62783 3.84373 24.5401 -0.298811 7.90656 23.5861 3.43959 
3.58606 22.4083 1.4862 6.1176 26.1266 41.1233 8.1308 25.5509 1.42495 
9.6028 23.1585 1.5141 11.5015 22.7829 3.39927 11.9265 24.8845 1.54695 
10.0014 25.4053 3.62232 10.0777 25.3327 40.9295 13.5985 22.4192 1.50268 
15.7574 24.2677 1.77536 13.7274 24.6029 3.66769 14.0106 26.6684 1.51953 
15.9162 26.1764 3.77262 17.8356 25.9013 1.71772 19.6431 23.5998 1.56676 
17.6738 23.7855 3.61353 19.7808 25.7165 3.54869 23.0803 22.8562 1.64507 
21.6446 25.4431 1.57677 21.4354 23.2806 3.71203 23.6513 24.9784 3.63428 
25.0045 22.6613 3.60991 25.4186 24.5859 1.39827 27.5398 26.2844 1.46568 
27.1574 24.3208 3.71327 25.6296 26.6681 3.53836 29.1926 24.0276 1.82428 
31.3726 25.7267 1.44931 31.2648 23.4309 3.64043 29.2929 26.0087 3.48401 
29.5012 25.9599 40.9451 33.1399 23.049 1.488 35.1738 24.7742 1.50458 
35.0129 22.6773 3.60421 33.3353 25.2414 3.64599 35.1072 22.7201 -0.445005 
33.3369 25.3379 41.1456 6.45746 27.9577 1.60799 4.66716 30.6346 1.53164 
4.4655 28.2875 3.74732 6.68691 30.0679 3.65723 6.73304 30.2011 41.1629 
4.53153 28.5126 -0.378652 8.4478 27.6917 3.61708 10.2152 27.2182 1.44366 
8.62733 29.6731 1.51891 10.453 29.5914 3.57846 8.3228 27.8845 40.9628 
12.1705 27.055 3.62135 12.365 29.14 1.52763 16.3126 28.5698 1.75691 
14.3106 28.6122 3.7648 14.5 30.7895 1.53999 12.5072 31.0926 3.52333 
18.3549 30.1608 1.42263 19.972 27.7581 1.51091 16.4959 30.4657 3.74536 
18.1697 28.0824 3.85048 20.1471 29.8034 3.71777 20.333 29.7028 40.9328 
18.1822 28.0126 41.082 23.7103 26.975 1.56068 22.1042 29.5222 1.49894 
24.0132 29.1123 3.50796 21.7622 27.551 3.53698 24.3279 31.0412 1.49343 
26.0018 28.6606 1.50939 27.9118 28.5062 40.9009 28.0011 30.4596 1.60663 
27.82 28.218 3.6813 26.1757 30.6142 3.62677 29.6916 28.0054 1.37958 
31.8455 29.7188 1.61965 31.5386 27.5575 3.82722 29.808 30.0378 3.69754 
29.8878 30.163 -0.581265 33.6469 27.4442 1.58454 35.9446 28.9386 1.6138 
35.5399 26.9496 3.51927 33.7874 29.3409 3.66117 36.2884 30.8589 41.004 
34.1221 31.3567 1.59026 36.126 30.9438 3.77201 35.6001 26.9386 -0.426042 
6.90754 32.208 1.57893 5.29914 34.5194 1.56473 4.93649 32.4529 3.52005 
7.17826 34.4 3.63311 4.9565 32.7124 40.8868 10.7087 31.4669 1.55172 
9.09004 34.027 1.45774 8.88218 31.8845 3.58331 10.8721 33.6236 3.70672 
12.616 33.2269 1.55887 14.7936 34.8193 1.4582 13.0135 35.1637 3.6233 
14.6738 32.9999 3.66361 16.6537 32.5371 1.6191 18.8409 34.203 1.46286 
16.7071 34.5767 3.51398 18.5685 32.1433 3.69458 18.5872 32.3932 41.0685 
22.2158 31.6848 3.60771 22.3209 31.4964 -0.689001 20.3951 31.8957 1.50266 
22.4426 33.6848 1.38041 20.5894 34.01 3.68335 26.3447 32.837 1.57475 
24.4967 33.2674 41.0326 24.7771 35.0909 1.62924 28.2172 32.5081 3.63897 
24.525 33.0285 3.81938 26.7074 35.1265 3.74664 28.4556 32.4878 -0.45253 
28.6136 34.5369 1.61038 30.2066 32.0783 1.69074 32.1404 31.4875 -0.444451 
30.4745 34.2298 3.58946 32.5767 33.6188 1.37139 32.1513 31.9307 3.54296 
[...]
POINT_DATA 4000
FIELD FieldData 6
id 1 4000 int
405 7 3 766 2 5 11 409 410 
372 770 10 16 15 413 414 13 14 
20 19 418 421 417 21 17 18 24 
28 422 465 63 22 32 67 469 426 
26 65 36 434 430 33 75 34 4 
40 401 438 77 8 47 406 445 45 
6 12 52 51 449 450 49 55 56 
453 454 54 53 59 60 458 457 99 
61 461 64 103 462 501 62 101 68 
72 71 505 466 69 66 473 76 470 
477 80 474 74 70 113 43 79 402 
441 78 446 48 83 485 87 486 91 
92 489 89 490 90 95 96 493 494 
100 139 497 498 537 104 108 502 541 
102 107 509 112 506 109 106 115 111 
517 513 116 114 442 44 119 478 481 
42 81 88 123 482 525 82 127 132 
526 529 131 136 533 135 530 134 534 
140 538 577 144 138 143 545 148 542 
142 147 151 549 510 149 146 120 155 
514 557 153 84 159 518 521 118 128 
522 163 168 565 167 172 569 566 171 
176 573 570 173 175 179 578 574 180 
178 177 183 184 581 585 546 181 182 
187 553 152 550 156 593 150 189 160 
195 197 554 597 154 124 199 561 558 
203 605 602 208 562 205 207 212 609 
606 206 211 215 613 610 174 614 219 
621 220 617 188 582 223 586 221 191 
192 231 589 590 190 196 194 235 200 
594 633 637 164 239 601 598 237 243 
642 245 641 244 241 645 204 242 248 
247 649 251 646 249 216 255 653 256 
657 259 224 618 622 227 228 625 626 
629 232 271 630 669 236 275 634 673 
273 240 279 638 677 238 277 283 284 
681 682 285 281 685 252 287 689 246 
650 291 260 654 295 693 264 263 658 
661 662 262 258 267 268 666 665 307 
272 270 311 670 709 276 315 674 713 
313 280 319 678 717 318 320 718 278 
288 323 721 725 282 292 327 686 690 
296 300 694 697 299 304 698 701 301 
705 305 303 308 702 312 306 347 710 
706 749 310 351 316 314 753 355 714 
353 359 757 758 360 328 363 722 761 
726 365 324 331 332 729 733 330 326 
335 340 734 737 334 337 339 344 738 
741 345 745 343 348 742 785 352 389 
387 746 789 356 391 350 750 793 754 
354 395 797 399 358 794 397 368 364 
762 765 367 362 336 730 371 769 773 
370 366 375 376 774 777 380 379 384 
778 781 23 383 388 382 782 425 25 
27 392 429 786 29 35 31 396 790 
433 390 394 437 39 400 798 398 37 
407 768 805 1166 411 810 809 772 1170 
416 415 814 813 420 419 817 821 818 
424 463 822 428 865 861 423 432 467 
869 826 471 830 873 475 870 403 440 
801 838 806 408 447 845 412 451 849 
452 850 455 456 853 854 459 460 857 
858 464 503 901 862 468 507 905 866 
472 476 909 877 479 874 443 404 841 
802 846 448 885 487 886 492 491 890 
889 495 496 894 893 499 897 500 898 
539 941 504 543 902 508 512 906 945 
511 480 917 913 515 483 842 444 519 
878 881 488 882 523 925 527 532 926 
929 531 535 536 933 930 934 937 540 
579 938 977 575 544 548 942 981 516 
547 910 949 520 555 957 914 484 918 
559 921 528 922 563 965 568 962 567 
572 969 966 571 576 973 970 580 974 
1017 615 583 584 978 946 985 552 551 
953 950 556 993 560 595 954 997 524 
599 958 961 603 1005 1002 608 607 612 
1006 1009 611 1010 616 1013 651 1053 619 
620 1014 1021 588 587 986 982 591 989 
592 631 990 596 635 994 1033 600 1001 
564 639 998 1037 643 1041 1042 644 1045 
647 648 1049 652 1046 655 1050 1057 656 
623 624 1022 1018 627 628 1025 1026 1029 
632 1030 671 1069 636 675 1034 1073 604 
640 679 1038 1077 683 684 1081 1082 687 
688 1085 1086 1089 691 660 1054 659 664 
1061 1058 663 1062 667 1065 668 1066 672 
1109 1070 711 676 715 1113 1074 680 719 
1078 1117 1118 720 723 724 1121 1122 692 
727 1125 1090 695 700 1097 1093 1094 699 
704 1098 1101 707 703 708 1102 1105 1145 
712 1106 747 1149 1110 751 716 1153 1114 
755 759 1157 1158 728 763 1161 1126 1198 
799 696 731 1133 1129 735 1137 740 1134 
739 744 1141 1138 743 748 1142 1185 752 
1146 787 1189 756 791 1150 1193 1154 795 
760 800 1197 767 764 732 1162 1165 736 
1130 1169 771 1173 776 775 1174 1177 780 
779 1178 784 1181 783 788 1182 825 427 
792 829 1186 436 431 796 1190 833 834 
439 435 1194 837 803 807 1202 1205 811 
1210 1209 1172 1570 816 815 1213 1214 820 
819 1218 1217 1221 824 828 863 1222 1261 
1265 832 867 1226 1269 871 1230 1234 875 
840 804 1238 1277 1206 808 847 1245 812 
851 852 1249 1250 855 856 1254 1253 859 
860 1257 1258 899 864 903 1262 1301 868 
907 1266 1305 872 876 1270 1273 1313 1274 
880 843 879 1241 1278 1246 848 883 1285 
887 1286 891 892 1289 1290 1293 895 896 
1294 1297 900 939 1298 904 943 1302 1341 
908 912 1309 1306 911 915 1310 1314 916 
1242 844 919 1281 1317 888 923 928 1325 
1282 927 932 1326 1329 931 935 1330 936 
1333 1334 940 979 1337 1338 1377 944 948 
1345 1342 947 951 1349 1346 920 955 1357 
1353 884 1318 959 1321 1322 963 1365 968 
1369 967 972 1366 971 976 1370 1373 975 
980 1374 1378 1015 1381 983 984 1382 1385 
1350 987 952 956 1389 1393 960 1354 995 
1397 924 1361 999 1358 1362 1003 1405 1402 
1008 1007 1012 1406 1409 1011 1016 1410 1413 
1414 1019 1020 1417 1418 988 1023 1421 1425 
991 992 1390 1031 1386 996 1035 1394 1433 
1000 1437 1401 964 1039 1398 1043 1044 1441 
1442 1445 1004 1047 1048 1449 1446 1052 1055 
1051 1453 1454 1056 1024 1059 1457 1461 1027 
1028 1426 1422 1429 1032 1071 1430 1036 1075 
1473 1434 1040 1079 1438 1477 1083 1084 1481 
1482 1087 1088 1485 1489 1450 1091 1095 1493 
1060 1064 1063 1458 1497 1462 1067 1465 1068 
1466 1469 1072 1470 1509 1111 1076 1115 1513 
1474 1080 1119 1517 1478 1518 1123 1124 1521 
1525 1092 1127 1486 1529 1096 1100 1533 1494 
1490 1099 1498 1501 1104 1107 1505 1103 1108 
1502 1506 1112 1147 1549 1510 1151 1116 1553 
1155 1514 1120 1159 1160 1557 1558 1128 1163 
1565 1522 1561 1199 1131 1132 1136 1530 1526 
1135 1534 1140 1537 1139 1144 1538 1541 1545 
1143 1148 1542 1585 1152 1589 1187 1546 1550 
1156 1191 1593 1554 1195 1200 1597 1168 1164 
1201 1562 1167 1171 1573 1566 1569 1176 1175 
1574 1180 1577 1179 1184 1581 1578 1183 823 
1188 1225 1582 827 1192 1586 1229 836 831 
1196 1233 1590 1237 839 835 1594 1598 1208 
1204 1641 1602 1610 1207 1211 1606 1609 1216 
1215 1614 1613 1220 1219 1618 1617 1621 1224 
1228 1263 1661 1622 1665 1267 1232 1630 1626 
1236 1235 1634 1633 1240 1279 1677 1638 1247 
1243 1642 1645 1646 1212 1649 1251 1252 1650 
1653 1255 1256 1654 1259 1260 1658 1657 1264 
1303 1701 1662 1271 1268 1272 1669 1666 1670 
1275 1276 1673 1674 1315 1244 1280 1717 1678 
1248 1283 1685 1681 1287 1291 1689 1292 1686 
1690 1295 1296 1694 1693 1299 1697 1300 1339 
1698 1304 1308 1705 1702 1307 1312 1709 1706 
1311 1316 1713 1710 1753 1319 1320 1714 1718 
1288 1682 1323 1725 1729 1327 1332 1726 1331 
1727 1732 1730 1336 1733 1335 1734 1737 1340 
1344 1741 1738 1343 1348 1745 1742 1347 1352 
1749 1746 1351 1355 1356 1750 1754 1284 1721 
1359 1757 1328 1363 1368 1722 1765 1367 1769 
1372 1766 1371 1376 1773 1770 1375 1379 1778 
1380 1777 1740 1781 1384 1383 1785 1782 1388 
1789 1387 1391 1786 1360 1395 1797 1793 1790 
1324 1758 1399 1761 1762 1403 1805 1802 1408 
1407 1412 1806 1809 1411 1415 1813 1774 1814 
1419 1420 1817 1818 1423 1424 1821 1822 1392 
1427 1431 1825 1829 1396 1794 1435 1833 1400 
1364 1801 1798 1439 1837 1443 1444 1842 1841 
1845 1451 1447 1448 1810 1849 1851 1416 1455 
1853 1854 1459 1460 1857 1858 1428 1463 1861 
1865 1826 1432 1830 1471 1869 1436 1475 1873 
1834 1836 1404 1440 1479 1838 1877 1483 1484 
1881 1885 1452 1487 1846 1889 1456 1491 1850 
1893 1496 1495 1464 1499 1894 1897 1901 1467 
1468 1866 1862 1507 1472 1870 1511 1909 1476 
1874 1913 1515 1480 1519 1878 1918 1917 1488 
1523 1882 1925 1492 1527 1929 1886 1890 1531 
1535 1933 1930 1500 1504 1898 1937 1905 1503 
1508 1902 1906 1512 1547 1949 1910 1947 1516 
1555 1914 1551 1953 1520 1559 1957 1921 1560 
1528 1563 1922 1965 1961 1532 1567 1571 1926 
1969 1536 1540 1934 1973 1539 1941 1544 1938 
1944 1945 1543 1548 1942 1985 1946 1552 1587 
1989 1952 1950 1556 1591 1993 1991 1954 1524 
1595 1599 1958 1203 1564 1962 1601 1568 1572 
1605 1966 1970 1575 1576 1974 1977 1580 1579 
1978 1584 1981 1583 1223 1588 1625 1982 1227 
1592 1629 1986 1231 1596 1994 1990 1997 1239 
1600 1998 1637 1604 1643 2041 2002 2043 2004 
1608 1612 2045 2008 2047 2049 1647 1616 2014 
1615 2010 2016 2051 2017 1620 1619 2018 2021 
2020 2019 1624 1628 1663 2022 2024 2028 2027 
2026 1623 1632 1631 2030 2029 2032 2031 1636 
1635 2033 2034 2035 2036 1640 1679 2038 2077 
2040 2079 2042 1648 1644 2044 2083 2081 2048 
1651 1652 2050 2046 2052 2087 1655 1656 2053 
2054 2055 2056 1660 1659 2059 2057 2058 2060 
2061 1664 1668 2065 2062 2063 2068 1667 1671 
1672 2069 2066 2067 2072 2071 1675 2075 2070 
1676 2073 2074 2076 2115 2119 1715 1680 1719 
2078 2117 2080 2085 1683 1684 2082 2084 2118 
2159 1687 2088 2089 1692 2086 1691 2091 2092 
2090 1695 1696 2093 2094 2095 2096 1699 2064 
1700 1704 2097 2101 2099 2104 1703 1708 2105 
2102 2103 2108 1707 1712 2109 2106 2107 2112 
2113 2111 1711 1716 2110 2116 2153 1720 1755 
2114 2120 2157 2155 2123 1688 1723 2125 2121 
2128 2124 2129 2126 2127 2132 1731 2131 2133 
1736 2130 2135 1735 2100 2137 1739 2098 1744 
2141 2139 2144 1743 1748 2145 2142 2143 2148 
1747 1752 2149 2146 2147 2152 2151 1751 1756 
1791 2150 2156 2193 2191 1759 1760 2158 2154 
2160 2195 1728 2122 2165 1763 1768 2168 2163 
1767 2169 1772 2166 2167 2171 1771 1775 2134 
2173 2136 2175 2138 2140 1779 2177 2178 1780 
2181 1783 1784 2184 2185 2183 2182 2189 2188 
1788 1787 1792 2187 2186 2229 1795 1796 2190 
2196 2194 2231 1724 1799 2161 2199 2197 2200 
2162 2205 1803 1808 2202 2207 2203 1804 1807 
1811 2170 2172 2209 2211 1776 1815 2213 2174 
2176 2215 2180 1819 1820 2218 2217 2219 2220 
1823 1824 2221 2222 2223 2224 1827 2227 1828 
1832 2225 2228 2226 2267 1831 1835 2232 2233 
2230 2236 1800 2235 2201 1764 2198 2237 1839 
2164 2239 2204 1843 1844 2241 2208 2245 2243 
2206 1847 1812 2210 2249 2212 2251 2247 1816 
1855 2214 2253 2254 2216 2255 1859 1860 2257 
2258 2259 2260 1863 1864 2261 2263 2264 2262 
1867 1871 2265 2269 2272 2268 2234 1875 2273 
2271 2275 1840 2238 2277 1879 2240 2279 1848 
1883 2285 2242 2283 2248 1852 1887 2246 2289 
2252 2287 2250 1856 1891 1896 2293 2291 2256 
2296 2295 1899 1895 1900 2294 2297 2300 2299 
1868 1903 2301 2298 2303 2305 2304 1907 2308 
2266 1872 2270 2309 1911 2311 2307 1876 2274 
1915 2313 2276 2315 2278 1880 1919 2317 2244 
2280 2281 1888 1923 2325 2282 2288 2323 1892 
1927 2329 2286 2292 2327 2290 1931 1936 2333 
2331 2336 2330 1935 1939 2335 2337 2334 2340 
1904 1908 2339 2302 2341 2343 1912 2306 2349 
2310 2312 2347 1951 2351 1916 1955 2314 2353 
2316 2320 1884 1920 2321 2318 2284 1959 2319 
1928 1963 2365 2322 2328 2363 2361 1924 2324 
1932 1967 1972 2326 2332 2369 2367 2372 1975 
1971 2373 2370 2371 2376 1940 2338 2377 2375 
2379 1943 2345 1948 2342 2344 2348 2346 1987 
2389 2352 2387 1956 2350 2354 2355 2356 2357 
2359 1960 1999 2358 2399 2360 1603 1964 2362 
2001 2003 2364 1968 2006 2005 1607 2366 2368 
2007 1611 2009 1976 2012 2013 2011 1980 2015 
2374 1979 2381 1984 2378 2380 2384 2385 1983 
1988 2382 2025 2383 2023 2388 1627 1992 2386 
2390 2392 2391 1995 1996 2393 2394 2395 2396 
2397 1639 2000 2398 2037 2039 2400 2402 2441 
2404 2443 2445 2408 2447 2446 2449 2451 2452 
2453 2414 2418 2420 2419 2421 2423 2425 2428 
2427 2426 2429 2430 2432 2431 2434 2433 2436 
2435 2475 2477 2438 2440 2479 2481 2442 2444 
2483 2519 2448 2485 2487 2489 2488 2454 2450 
2455 2456 2424 2461 2457 2459 2422 2465 2462 
2463 2468 2469 2466 2467 2472 2471 2470 2473 
2474 2476 2515 2517 2478 2480 2482 2521 2484 
2518 2559 2525 2523 2486 2492 2491 2490 2493 
2497 2460 2495 2464 2458 2501 2499 2504 2502 
2505 2503 2508 2509 2506 2507 2512 2513 2510 
2511 2516 2553 2514 2555 2520 2557 2524 2522 
2558 2599 2528 2526 2529 2527 2531 2533 2494 
2496 2535 2537 2500 2498 2541 2539 2544 2538 
2545 2542 2543 2548 2546 2549 2547 2552 2551 
2593 2550 2556 2591 2554 2597 2595 2560 2561 
2565 2563 2567 2569 2530 2532 2571 2534 2573 
2536 2575 2179 2540 2577 2578 2579 2581 2585 
2582 2584 2583 2588 2192 2589 2587 2586 2592 
2627 2629 2633 2590 2596 2631 2598 2594 2635 
2600 2562 2566 2605 2568 2607 2570 2609 2572 
2611 2613 2574 2576 2615 2580 2617 2618 2619 
2620 2621 2623 2624 2622 2625 2626 2628 2667 
2630 2632 2636 2669 2671 2637 2634 2601 2564 
2639 2602 2603 2645 2608 2643 2606 2610 2649 
2612 2647 2651 2614 2653 2654 2616 2655 2658 
2657 2659 2660 2661 2663 2664 2662 2666 2665 
2668 2707 2705 2673 2670 2675 2672 2638 2677 
2604 2640 2685 2642 2648 2683 2646 2689 2652 
2687 2656 2650 2693 2691 2696 2695 2694 2697 
2700 2699 2701 2698 2703 2704 2702 2706 2709 
2711 2708 2713 2674 2676 2680 2681 2641 2678 
2679 2644 2682 2725 2688 2723 2729 2686 2692 
2727 2733 2690 2731 2736 2730 2734 2735 2737 
2740 2739 2738 2741 2744 2743 2745 2749 2710 
2712 2747 2714 2716 2717 2715 2720 2718 2719 
2721 2684 2722 2728 2763 2761 2724 2765 2726 
2769 2732 2767 2772 2773 2771 2776 2770 2777 
2774 2775 2780 2742 2785 2781 2779 2748 2750 
2746 2752 2751 2753 2754 2755 2756 2759 2757 
2758 2760 2799 2762 2401 2403 2764 2406 2405 
2766 2768 2407 2409 2410 2413 2412 2411 2416 
2417 2778 2415 2784 2783 2786 2782 2788 2787 
2789 2790 2792 2791 2794 2793 2795 2796 2797 
2437 2798 2439 2800 2841 2802 2804 2843 2846 
2845 2808 2847 2849 2853 2851 2816 3182 2821 
2814 2820 2819 2825 2828 2823 2827 2826 2830 
2829 2832 2831 2834 2833 2836 2835 2877 2838 
2840 2879 2881 2842 2844 2883 2885 2848 2852 
2887 2893 2850 2857 2856 2855 2861 2824 2818 
2859 2822 2862 2865 2863 2868 2866 2869 2871 
2867 2872 2875 2870 2873 2876 2913 2874 2917 
2915 2878 2880 2919 2882 2918 2921 2884 2959 
2888 2889 2886 2891 2892 2890 2897 2854 2860 
2895 2864 2858 2901 2899 2904 2905 2902 2903 
2908 2909 2906 2907 2912 2953 2910 2911 2916 
2914 2957 2955 2920 2923 2958 2925 2924 2928 
2926 2929 2927 2931 2894 2896 2933 2900 2935 
2937 2898 2941 2939 2944 2938 2945 2942 2943 
2948 2949 2946 2947 2952 2950 2993 2951 2956 
2991 2954 2997 2995 2960 2922 2965 2963 2967 
2930 2969 2932 2971 2934 2973 2936 2975 2977 
2978 2940 2979 2980 2981 2985 2982 2983 2984 
2989 2988 2986 2987 2992 3029 3033 2990 2996 
3031 2994 2999 2998 3000 2961 2966 3005 2968 
3007 2962 3003 2970 3009 2972 3011 2974 3013 
2976 3015 3017 3018 3019 3020 3021 3022 3023 
3024 3025 3026 3027 3028 3067 3069 3030 3032 
3036 3035 2964 3037 3039 3034 3045 3002 3008 
3043 3006 3010 3049 3012 3047 3051 3014 3053 
3054 3016 3055 3056 3057 3058 3059 3060 3062 
3061 3063 3064 3066 3065 3068 3072 3105 3071 
3073 3075 3070 3001 3038 3004 3040 3085 3042 
3048 3083 3089 3046 3052 3087 3050 3093 3091 
3096 3094 3095 3097 3099 3100 3098 3101 3102 
3103 3104 3109 3107 3111 3106 3074 3076 3077 
3080 3041 3078 3079 3044 3082 3125 3088 3123 
3086 3129 3092 3127 3090 3133 3131 3136 3130 
3134 3137 3135 3140 3138 3139 3141 3143 3108 
3110 3112 3145 3113 3147 3116 3117 3114 3115 
3120 3081 3121 3118 3119 3084 3122 3128 3163 
3161 3165 3132 3126 3169 3167 3173 3170 3171 
3176 3172 3177 3174 3175 3179 3142 3144 3181 
3146 3148 3149 3150 3152 3151 3153 3154 3155 
3156 3159 3124 3157 3160 3158 3199 2801 3162 
2803 3164 2806 3166 2805 3168 2807 2809 2810 
2813 2812 2811 2815 2817 3178 3180 3184 3183 
3186 3185 3188 3187 3189 3190 3192 3191 3193 
3194 3195 3196 3197 2837 3198 2839 3200 3241 
3202 3204 3243 3245 3249 3208 3212 3210 3214 
3216 3215 3221 3217 3218 3220 3219 3225 3224 
3228 3227 3226 3222 3223 3230 3229 3232 3231 
3234 3233 3236 3275 3238 3277 3240 3279 3242 
3281 3248 3244 3247 3246 3251 3252 3250 3254 
3255 3253 3256 3257 3261 3259 3260 3264 3262 
3265 3263 3268 3269 3266 3267 3272 3271 3273 
3270 3274 3313 3276 3315 3278 3317 3280 3319 
3318 3285 3283 3282 3284 3287 3286 3289 3292 
3291 3290 3297 3293 3295 3296 3258 3301 3299 
3304 3302 3305 3303 3308 3309 3306 3307 3312 
3353 3310 3311 3316 3314 3357 3355 3320 3288 
3325 3321 3323 3328 3329 3326 3327 3332 3333 
3294 3331 3335 3300 3337 3298 3341 3339 3344 
3345 3342 3343 3348 3349 3346 3347 3352 3393 
3350 3351 3356 3391 3354 3359 3358 3360 3322 
3365 3363 3368 3330 3367 3371 3369 3334 3373 
3336 3375 3338 3377 3378 3340 3379 3380 3382 
3381 3383 3384 3385 3388 3389 3386 3387 3392 
3390 3395 3396 3394 3429 3324 3397 3361 3399 
3362 3366 3405 3403 3407 3370 3409 3372 3411 
3374 3413 3376 3415 3417 3418 3419 3420 3421 
3422 3423 3424 3425 3426 3427 3428 3432 3433 
3431 3430 3435 3400 3364 3398 3437 3401 3439 
3445 3406 3402 3408 3443 3410 3449 3412 3447 
3414 3451 3453 3454 3416 3455 3457 3458 3459 
3460 3461 3462 3463 3464 3465 3469 3467 3471 
3466 3434 3436 3475 3473 3404 3438 3440 3477 
3479 3442 3485 3448 3483 3446 3489 3452 3487 
3456 3450 3493 3491 3496 3495 3494 3497 3499 
3500 3498 3501 3468 3503 3505 3470 3472 3509 
3511 3507 3513 3474 3476 3515 3441 3481 3478 
3444 3480 3525 3482 3488 3523 3486 3529 3492 
3527 3490 3533 3531 3536 3530 3534 3537 3539 
3535 3502 3541 3504 3508 3545 3506 3549 3512 
3547 3510 3517 3514 3551 3516 3520 3518 3521 
3484 3519 3559 3522 3561 3528 3563 3565 3569 
3526 3532 3567 3572 3573 3570 3571 3575 3538 
3540 3577 3544 3542 3543 3548 3585 3583 3550 
3546 3552 3587 3554 3553 3555 3556 3557 3558 
3524 3560 3599 3597 3201 3562 3203 3564 3568 
3206 3205 3566 3207 3209 3574 3213 3211 3576 
3580 3581 3579 3578 3584 3586 3582 3588 3590 
3589 3591 3592 3235 3594 3593 3595 3596 3237 
3598 3239 3600 3602 3641 3608 3604 9 3610 
3606 3611 3607 3609 3613 3614 3616 3615 3618 
3617 3620 3619 3621 3622 3624 3628 3663 3661 
30 3626 3630 3629 3632 3631 3634 3633 3636 
3635 3675 38 3638 3677 3640 3679 3645 3642 
3643 3647 3612 3650 50 3649 3652 3651 3654 
3653 3655 3656 58 57 3658 3657 3659 3660 
3699 3662 3665 3664 3668 3669 3666 3667 3672 
3671 3670 73 3674 3673 3676 3715 3713 41 
3678 3717 3644 3680 46 85 3646 3648 3681 
3685 3683 3687 86 3689 3692 3691 3690 3686 
94 93 3694 3693 3695 3696 97 98 3701 
3697 3700 3704 105 3705 3702 3703 3708 3709 
3706 3707 3712 110 3753 3710 3711 3716 117 
3714 3718 3719 3720 125 3682 3725 3688 3723 
3728 129 126 3726 3729 3727 3732 130 133 
3731 3730 3733 3735 3736 137 141 3738 3698 
3737 3741 3739 3744 145 3745 3742 3743 3748 
3749 3746 3747 3752 157 3751 3750 3754 3755 
3756 121 3721 3757 3684 3759 122 3765 165 
3722 3763 3768 166 169 3769 3766 3767 3772 
170 3734 3773 3771 3775 3774 3777 3778 3740 
3779 3780 185 3785 3781 3782 3783 3784 193 
3788 3789 3786 3787 3791 3790 3793 3760 3795 
3797 158 161 3758 3724 3761 3799 202 3762 
162 3802 3805 3803 3808 209 3770 3809 3807 
3811 213 3813 3776 3815 214 3814 217 3818 
3817 3819 218 3820 225 3821 3822 3823 3824 
186 3825 3792 3829 3827 233 3794 3796 3833 
3835 3800 201 198 3764 3798 3801 3837 3839 
3845 3841 3843 3844 210 3806 3849 3810 3812 
3847 3851 253 254 3853 3816 3855 3856 3854 
261 3857 3858 257 3859 3860 226 222 3861 
3828 3865 3863 230 3831 229 3826 3830 3832 
3871 3869 234 3834 3836 3873 3875 3804 3877 
3838 3840 3879 3842 3885 3848 3883 289 3889 
3846 3852 3887 293 250 3850 3893 3891 3896 
290 297 3895 3897 3894 3899 3864 266 265 
3901 3867 3862 3868 3866 269 309 3870 3872 
3909 3911 274 3874 3913 3876 3915 317 3917 
3878 3880 3919 3925 3882 3888 325 3923 329 
286 3929 3886 3892 3927 294 3890 3933 3931 
3935 3930 298 3898 3937 3900 3904 302 3907 
3905 3902 3903 3908 3945 349 3949 3906 3912 
3947 3910 3914 3953 3916 3951 3955 357 3881 
3921 3884 3918 3920 321 3959 322 361 3922 
3961 3928 3963 3965 3926 3969 3932 3967 3971 
333 3934 3973 3936 3940 338 341 3938 3939 
3944 3941 342 385 3943 3985 3942 3948 3983 
346 3946 3989 3952 3987 393 3954 3950 3956 
3991 3957 3958 3924 3960 3999 1 3601 3962 
3603 3964 369 3605 3966 3968 3972 373 3970 
374 377 3975 3976 3974 3977 3980 381 378 
3978 3981 3979 3984 3625 3982 3623 3988 386 
3990 3986 3627 3992 3993 3994 3995 3996 3637 
3998 3997 3639 4000 
type 1 4000 int
1 1 1 1 1 1 1 1 1 
1 1 1 1 1 1 1 1 1 
1 1 1 1 1 1 1 1 1 
1 1 1 1 1 1 1 1 1 
1 1 1 1 1 1 1 1 1 
1 1 1 1 1 1 1 1 1 
1 1 1 1 1 1 1 1 1 
1 1 1 1 1 1 1 1 1 
1 1 1 1 1 1 1 1 1 
1 1 1 1 1 1 1 1 1 
1 1 1 1 1 1 1 1 1 
1 1 1 1 1 1 1 1 1 
1 1 1 1 1 1 1 1 1 
1 1 1 1 1 1 1 1 1 
1 1 1 1 1 1 1 1 1 
1 1 1 1 1 1 1 1 1 
1 1 1 1 1 1 1 1 1 
1 1 1 1 1 1 1 1 1 
1 1 1 1 1 1 1 1 1 
1 1 1 1 1 1 1 1 1 
1 1 1 1 1 1 1 1 1 
1 1 1 1 1 1 1 1 1 
1 1 1 1 1 1 1 1 1 
1 1 1 1 1 1 1 1 1 
1 1 1 1 1 1 1 1 1 
1 1 1 1 1 1 1 1 1 
1 1 1 1 1 1 1 1 1 
1 1 1 1 1 1 1 1 1 
1 1 1 1 1 1 1 1 1 
1 1 1 1 1 1 1 1 1 
1 1 1 1 1 1 1 1 1 