# vtk DataFile Version 4.0
Generated by LAMMPS
ASCII
DATASET POLYDATA
POINTS 4000 float
5.56759 1.12214 0.985639 4.20581 -1.15419 1.02606 4.00903 1.04037 3.31613 
2.36868 -1.15071 3.19829 9.59007 1.05062 1.08421 7.66386 3.00725 1.05242 
11.24 -1.22119 1.09488 7.66736 -0.909115 1.01364 7.4858 0.983432 3.15594 
9.53969 2.99712 3.1767 12.8499 1.03151 1.02541 14.8191 -0.92863 0.900406 
14.7578 1.19538 3.06212 12.9552 -1.12859 -1.06128 16.6575 1.20622 0.925071 
20.2641 1.17895 0.974703 18.5649 1.09154 -1.04997 18.3708 -0.997678 0.982243 
18.3012 0.889588 3.03584 23.9752 0.981777 1.04629 22.0748 0.881949 -1.27979 
22.0161 3.1427 1.12853 23.924 -1.30617 -1.10312 22.0471 -1.0256 0.892792 
27.43 1.07191 0.93024 25.5938 3.19303 1.18186 29.3934 2.99184 1.03589 
27.4629 3.28994 -1.10795 31.1195 0.88907 0.999666 33.0803 -1.04039 0.93611 
32.8789 3.15 0.877753 32.9403 1.09855 3.01779 29.161 1.11381 -1.02894 
32.9524 1.13115 -1.04166 38.5124 0.883013 0.96688 34.8505 1.17055 1.05361 
36.7036 -1.01519 1.15155 36.8117 1.01666 -1.18132 34.7957 3.11237 -1.12841 
5.69761 3.17115 2.99034 3.92528 3.18014 0.808301 5.81536 5.28192 0.902877 
3.92511 7.37781 0.998838 2.0294 7.58262 -1.17197 9.46978 5.22592 1.02949 
7.73708 5.1874 3.12127 7.56842 7.45514 0.988841 9.5873 3.00678 -1.048 
11.256 3.25813 1.11919 14.8037 3.23839 1.19158 13.0571 5.38042 1.04165 
18.4045 3.30928 0.96781 16.6804 5.29181 1.19953 20.4025 5.29246 0.910332 
16.6496 3.09768 -1.22071 20.2457 2.97452 3.13795 23.8341 5.41091 1.24898 
22.017 5.10298 3.1252 20.3957 7.2506 -1.1867 27.6125 5.07531 0.981796 
25.812 7.53853 1.01951 25.6033 5.21978 -0.907527 29.3257 5.17008 -1.17174 
27.5776 7.35535 -0.981212 30.9862 5.16588 1.08984 31.1301 7.47234 3.17957 
33.0154 7.34445 1.05792 29.5526 7.476 0.962822 31.1592 3.32543 -1.09214 
31.2344 7.51149 -1.21025 38.5624 5.37798 0.947074 36.8025 3.15498 0.826197 
34.8237 5.16654 0.85879 38.4703 7.19429 3.15272 34.8819 7.27696 3.13675 
38.5021 3.44483 -1.27222 36.5987 5.53292 -1.1356 5.72629 9.59773 1.04058 
4.12486 11.6381 1.2218 2.03889 9.60068 1.02962 5.57081 11.6553 -1.18274 
5.88096 11.757 3.08494 3.92642 9.46698 -1.19465 11.1597 7.44398 0.951576 
9.26887 9.55763 0.715231 7.51715 9.68659 -1.25961 9.41385 7.4945 3.09057 
11.1875 9.6435 3.04887 11.1727 9.60336 -1.05339 13.0909 7.29268 -1.08349 
14.9663 7.32427 1.18366 13.0997 9.38193 1.0275 14.9407 9.53298 -1.03565 
16.6041 7.43416 -0.957629 18.6516 7.33373 0.933475 16.7163 9.5318 1.06398 
18.584 9.50688 -1.03532 20.2332 9.53521 1.04748 20.3811 7.37047 3.09641 
18.4352 9.61918 3.15125 22.2043 7.51817 0.883954 22.0843 11.835 0.910422 
23.9403 9.58859 0.951976 23.8578 11.7384 -1.25411 23.8265 7.39165 3.32992 
22.2171 9.52774 3.14423 27.6278 9.59998 0.870543 29.4943 9.50802 -1.296 
25.7808 11.6553 0.795129 25.7081 9.78589 2.96913 29.5068 11.6674 0.727101 
27.608 7.3331 3.0256 25.7917 9.59744 -1.15687 31.2594 9.67405 0.810184 
32.9528 9.5113 -1.43588 34.7606 7.5605 -1.35941 36.5298 7.46921 0.940108 
34.5456 9.44932 0.951481 36.5041 11.4743 0.867444 36.2501 9.81244 -1.11718 
38.5366 11.4418 -0.885186 5.90766 13.9392 1.01998 3.69707 13.9584 -1.14566 
7.59481 11.6245 1.05385 9.3256 13.7787 0.954593 7.62912 15.926 1.00654 
9.34989 11.7297 3.06019 7.5386 13.6941 3.15425 14.7855 11.7072 1.00798 
13.0235 11.5791 -1.11301 11.169 11.7581 0.949853 12.961 14.0684 1.0297 
14.8387 13.7477 3.17987 18.311 11.6636 1.00909 16.5191 13.7901 1.06018 
20.3488 13.7836 0.907706 16.6176 11.6984 3.11345 18.5172 13.6198 3.16517 
23.8273 13.8061 0.68423 22.3299 13.9268 3.12642 22.1484 15.8188 0.943969 
23.7508 11.7444 3.06324 20.5105 11.6483 3.08132 23.8427 16.0298 -1.24047 
27.6438 13.7307 0.89202 25.7608 13.9589 -1.1537 25.8859 15.874 0.804728 
25.7046 13.6492 2.88783 27.6216 11.6331 -1.3261 32.9233 11.8848 0.984524 
31.2136 13.8646 0.991613 33.0901 16.0532 1.05872 33.1453 13.9247 3.05983 
31.3452 11.7716 -1.46957 29.3124 13.7907 -1.31438 30.9719 15.8684 -1.08462 
38.4386 13.6456 1.09913 35.0055 13.6915 1.03643 34.6499 11.9392 -1.21014 
35.0639 16.0945 -0.947491 3.57917 15.8896 0.938489 5.7465 15.9325 -1.137 
5.59134 17.9903 1.0857 2.14753 18.1817 0.957085 1.79375 16.048 -1.16498 
3.82093 17.9198 -1.20941 11.1261 16.0403 0.837351 9.48257 18.1506 1.02229 
7.54421 18.0637 -1.26559 9.32769 15.9113 3.08738 13.0231 15.8744 -1.03608 
14.8562 16.0917 0.961841 12.9424 18.0665 1.00121 11.1421 18.1632 3.28115 
12.9682 16.0245 3.11351 11.0794 18.215 -1.1415 18.4339 15.8273 0.83551 
16.5724 18.1296 0.916376 18.4027 17.8997 3.03382 20.4389 20.0041 3.13742 
18.4839 20.3074 1.17591 16.6591 15.7354 3.10023 24.1629 15.8724 2.98756 
20.2746 18.0505 0.929912 23.9904 18.0317 1.28578 22.1053 18.0345 3.12969 
29.2869 15.9278 1.13634 27.37 17.995 1.19742 25.6456 20.1323 1.04192 
29.2333 20.0498 0.96459 25.4457 18.263 3.45412 27.7003 16.0755 -1.44088 
31.1892 18.1331 1.11778 34.8234 16 3.26887 38.3616 20.3229 -1.05415 
36.4916 16.1872 1.2761 34.6898 18.1539 1.04997 36.5751 20.2529 1.13737 
34.6104 20.3038 -0.991846 5.52651 19.9292 -1.13181 4.13748 20.1913 1.11874 
5.80398 22.3647 1.31449 3.95464 22.4189 3.27243 3.96035 24.418 1.17277 
5.70614 20.2203 3.22436 5.7529 24.5502 3.15492 3.9755 22.2598 -0.969021 
7.42744 20.2106 1.08622 9.28031 20.26 -1.12404 9.28181 22.3838 0.811331 
11.0605 22.2131 -1.12574 7.62403 22.2908 3.1145 14.8016 20.219 1.00811 
11.2947 20.2068 0.958861 13.0884 22.2833 1.01715 14.8921 24.4531 1.04369 
13.1254 20.1929 3.02609 15.0077 22.4554 3.12925 12.9278 24.5353 2.91035 
16.7748 22.4631 1.05832 18.545 22.179 3.14058 20.4067 22.2397 1.1648 
22.1264 20.0804 0.942411 21.9779 22.2522 3.29307 23.9135 22.4651 1.01233 
23.8358 24.3934 3.27781 23.7909 20.2248 3.0571 27.5736 22.2017 1.25768 
25.6958 24.4157 1.17285 29.3069 22.6346 3.3435 30.912 20.3233 3.24605 
32.616 20.3966 1.15924 30.8214 22.4652 1.10916 32.8419 22.3843 3.2178 
32.8512 24.716 1.06449 32.8257 22.4833 -1.03143 38.2124 22.4717 1.05606 
34.6182 22.599 1.05292 5.63583 26.5263 1.09153 2.4142 26.7067 0.864091 
7.54452 24.394 1.05236 9.31081 26.5074 0.958641 7.4179 28.7084 0.955325 
9.35688 24.4708 3.10175 11.1216 24.4552 1.00812 12.9124 26.6693 0.921531 
11.2978 28.7798 0.904309 15.0388 26.475 3.0545 11.0218 26.4895 2.95522 
13.2313 28.603 3.03241 14.798 26.5035 -0.965149 18.6344 24.388 1.12328 
20.3014 24.6291 3.3016 16.8494 24.4395 3.30625 16.9263 26.6747 1.10097 
18.2762 28.8304 0.827428 16.7231 28.7347 3.12687 18.558 26.5913 3.36677 
16.6493 28.8882 -1.07352 21.8652 24.3714 1.12731 20.1074 26.7476 1.12249 
23.948 26.5034 1.04784 22.0526 26.5255 3.16903 24.0589 28.7945 3.20165 
29.2118 24.6377 1.14487 27.4525 26.6661 1.26097 25.7456 28.7604 1.02812 
27.3641 28.893 -1.06104 29.0493 26.7345 -1.01811 30.7383 26.9129 0.95849 
30.948 29.0474 3.05602 36.5716 24.7653 0.962429 34.6477 26.7629 1.03245 
36.6368 28.8025 1.12414 36.719 26.7049 2.98494 34.7521 28.8743 3.05513 
34.7656 24.6953 -1.14795 4.23096 28.9302 0.932404 5.8422 31.1142 0.963744 
3.79502 33.0567 0.923692 4.13888 30.9353 -1.06887 9.40562 28.7688 -1.17524 
9.22243 30.7123 0.914281 9.40984 32.9901 3.07461 7.6983 32.9497 0.767519 
11.1945 32.9034 0.897178 9.41453 28.6233 2.86982 14.8939 28.6952 0.983933 
11.4192 30.7693 2.92061 13.1362 30.8695 1.00646 14.6761 33.0704 0.866222 
13.0981 33.0748 3.12495 11.1712 30.733 -1.11729 16.6477 30.9772 0.932912 
18.344 30.8786 3.05865 18.5299 32.9017 0.8829 20.3287 30.7658 1.04278 
22.1632 28.5329 1.12145 20.303 28.7365 3.21093 23.6592 30.9077 0.92121 
22.1403 30.8068 3.24619 21.9139 32.9745 0.953616 29.0138 29.0089 1.01891 
27.3215 31.1771 0.851428 25.6388 30.8859 -1.05891 25.5623 33.1691 1.09213 
25.8088 31.0286 3.13331 32.9174 28.8209 0.865614 30.9711 30.9026 0.968923 
32.9715 31.0486 2.99178 33.0082 33.0127 0.966853 32.9305 30.9217 -1.04085 
30.9003 29.0624 -0.941791 31.135 33.093 -1.16491 38.4678 31.0675 0.980874 
34.7214 30.8673 1.0333 34.7733 33.1579 3.08162 36.6552 30.9045 3.09993 
5.84548 35.0911 0.893341 2.13418 35.3357 0.778916 4.08442 37.4966 0.768926 
9.52918 35.0933 0.740525 11.1415 37.3507 0.812005 9.5813 32.9132 -1.33051 
7.52303 35.1415 -1.27009 9.30073 37.2053 -1.3114 13.0686 35.2493 0.887821 
14.9549 35.1451 3.20113 14.855 35.187 -1.31017 11.361 35.2006 -1.21841 
16.3896 35.2053 0.886047 20.1033 35.0378 1.04463 23.6144 35.3632 1.04605 
21.876 35.1047 3.08766 21.945 35.1308 -1.15341 29.293 33.2875 0.794442 
27.4012 35.2456 0.950794 25.481 35.3596 -0.95733 25.7729 37.403 1.29971 
27.3992 33.13 -1.15607 27.3461 37.3278 -1.11393 31.0563 35.1545 0.92076 
32.9497 37.367 0.918522 29.2207 35.2776 -1.05296 32.9863 35.2477 -1.13412 
36.5801 33.0916 0.995093 34.6647 35.3602 1.02758 38.6383 37.3777 2.94099 
34.8709 37.4854 -1.30044 36.6385 37.6328 0.983097 34.8883 33.1087 -1.05475 
5.76379 41.7012 3.299 5.86888 37.0355 2.88642 5.91555 39.6074 0.897852 
4.22893 39.4383 3.0832 2.24401 41.5394 -1.12639 6.01153 37.3202 -1.17111 
7.78226 37.448 0.994883 9.3114 39.6811 1.10113 7.29627 39.612 3.27435 
14.8277 37.3914 0.795835 13.0796 39.5112 0.943404 14.7603 39.4396 3.3476 
13.056 37.4701 -1.31584 18.3631 37.4004 0.98676 16.4912 39.6571 0.947378 
18.4035 39.6062 3.10235 20.2688 37.3324 3.0872 20.1908 39.4773 0.896169 
16.3271 41.681 3.09427 21.8533 37.439 0.843992 23.8322 39.4792 1.04976 
23.9181 41.4548 3.05352 23.7009 37.3233 3.04642 20.0675 37.3875 -1.3208 
23.7406 37.3713 -1.22104 25.76 41.5593 1.07359 29.2093 41.6087 1.0435 
29.2568 37.1842 0.973515 27.3575 39.3368 0.91447 29.3043 39.4543 -0.99771 
25.6253 39.3972 -1.18746 31.1895 39.425 1.07757 33.2365 39.5051 -1.1293 
33.0554 39.6153 3.21844 31.1374 41.6818 -1.0651 34.8381 41.616 3.46101 
38.4689 39.6602 0.968518 34.6549 37.3793 2.97687 34.9039 39.8001 1.0656 
36.6531 39.7991 -1.1458 36.7031 39.4747 3.00521 5.90726 1.05116 5.33995 
3.97991 1.07568 7.25853 4.0866 3.04117 5.12668 5.94149 3.20711 7.38606 
11.3382 0.903113 3.39787 9.35457 -0.880661 3.28478 9.38279 1.07795 5.29593 
7.63692 3.02366 5.10194 7.66539 1.16265 7.39219 9.49398 -0.947701 7.43995 
[...]
POINT_DATA 4000
FIELD FieldData 6
id 1 4000 int
8 3 402 401 12 47 11 7 406 
449 16 15 414 13 20 24 18 19 
418 28 22 63 25 23 32 67 71 
69 36 35 75 434 30 34 4 40 
39 38 77 445 43 48 83 81 52 
446 87 49 51 55 56 59 60 64 
57 461 68 462 101 72 107 66 70 
109 76 513 115 111 73 113 44 79 
80 481 517 41 78 88 123 84 125 
525 82 91 92 86 489 490 90 93 
95 96 94 97 99 100 98 104 501 
498 103 143 108 145 505 502 112 110 
147 506 151 509 106 116 114 117 119 
120 159 118 121 128 122 127 132 167 
529 526 135 133 131 136 534 139 140 
144 537 538 148 542 183 545 541 185 
152 146 187 546 149 155 156 195 554 
153 150 193 124 160 157 197 163 165 
168 164 161 162 171 172 166 569 173 
175 176 570 573 170 179 180 578 621 
219 577 585 184 188 582 191 192 227 
231 586 189 196 597 201 199 200 239 
237 205 203 208 602 243 605 645 202 
207 209 212 210 606 215 211 216 255 
613 614 653 220 618 224 223 622 228 
665 625 232 267 630 633 235 236 634 
275 234 204 240 248 244 247 252 287 
649 251 256 291 654 650 693 254 259 
661 657 260 299 697 658 297 263 264 
268 662 705 271 272 307 309 270 276 
713 279 280 319 678 717 277 283 288 
323 282 289 292 729 327 331 689 295 
690 296 335 733 290 300 698 339 304 
303 701 308 702 343 311 312 306 347 
706 315 316 714 355 314 313 353 284 
320 757 718 328 324 363 332 371 329 
326 369 336 734 334 330 340 344 348 
742 342 351 352 346 387 349 389 356 
395 350 354 359 360 761 397 399 357 
405 765 368 762 1 365 367 372 766 
375 376 774 373 379 380 778 781 384 
417 383 388 425 785 381 385 27 31 
391 392 390 386 396 394 794 33 437 
364 797 400 398 798 408 802 443 845 
410 409 412 447 806 809 849 416 453 
455 451 814 421 457 420 459 861 424 
857 422 428 423 430 426 469 427 432 
826 431 467 471 436 475 473 477 404 
438 440 479 439 485 442 448 483 842 
452 846 450 491 889 454 456 854 460 
458 858 901 465 464 463 468 865 905 
466 470 472 507 869 866 474 476 515 
511 441 444 478 480 519 482 488 523 
521 925 486 487 492 527 886 890 493 
494 495 496 894 497 499 500 898 937 
504 503 508 902 941 512 549 909 949 
510 514 516 555 551 484 518 520 559 
565 522 528 563 922 530 532 531 930 
929 533 535 536 934 539 540 938 977 
543 544 548 942 589 547 552 587 550 
553 593 591 556 595 561 557 524 558 
560 599 562 568 962 961 1001 965 571 
566 567 572 609 969 1009 970 574 575 
576 611 615 1013 580 579 619 978 584 
581 583 588 623 592 627 629 1029 986 
590 594 596 635 598 564 600 639 637 
1037 998 601 603 608 1002 643 1005 610 
607 612 1010 616 1014 655 1053 617 1021 
620 659 1018 1017 624 628 1065 663 1061 
1025 626 669 631 632 667 1026 1069 671 
1030 636 675 1073 1034 677 604 638 640 
641 642 648 1085 683 1042 646 651 647 
652 1046 1089 1050 691 656 1093 695 1054 
660 1057 699 664 668 1062 1105 666 670 
672 1109 1066 674 673 676 711 715 679 
644 680 1078 685 682 688 684 723 686 
687 692 1086 727 694 696 731 1094 700 
704 737 1098 1137 703 1101 708 1102 743 
1141 709 710 707 712 1106 753 751 716 
755 681 719 720 721 759 725 722 728 
763 769 726 730 732 767 1126 771 773 
736 735 741 739 738 740 779 745 1145 
744 748 1185 783 749 750 746 747 1146 
752 787 1189 754 793 756 795 791 724 
758 760 799 403 768 805 407 772 1166 
411 1170 770 413 415 775 776 813 1174 
777 419 780 784 782 788 429 789 786 
792 790 433 435 796 764 800 801 1198 
841 808 804 843 1241 812 847 851 810 
816 855 1253 818 820 859 824 1218 822 
863 828 823 1222 830 832 827 831 1269 
834 871 836 1233 838 877 840 879 885 
848 883 850 852 887 891 853 856 1254 
1293 860 1258 897 1257 862 864 868 1262 
903 1261 1305 867 872 911 1270 875 870 
873 874 876 1273 1313 878 881 844 880 
882 888 884 892 927 931 1290 1329 895 
893 896 935 1294 1333 899 900 939 1297 
1298 1337 945 1301 904 908 1302 907 906 
912 951 910 1306 1309 915 913 914 916 
917 918 919 920 957 921 923 928 1325 
924 926 932 1326 967 1369 933 936 1334 
971 1330 940 944 979 1381 943 948 983 
1385 947 946 952 989 987 950 954 993 
953 955 956 991 959 958 960 963 968 
1362 1003 966 972 1011 1370 973 974 975 
976 1413 981 980 984 1421 1378 985 982 
988 1382 990 992 1027 1389 1429 1390 994 
1031 995 996 1035 1433 1033 1393 997 999 
964 1000 1041 1045 1008 1445 1004 1402 1006 
1007 1012 1049 1406 1015 1016 1055 1414 1019 
1020 1024 1457 1022 1023 1422 1028 1425 1032 
1067 1426 1469 1430 1071 1036 1075 1038 1039 
1040 1438 1079 1043 1048 1442 1047 1052 1489 
1446 1450 1051 1056 1095 1454 1493 1097 1058 
1060 1059 1099 1063 1064 1068 1103 1461 1465 
1462 1505 1072 1107 1466 1070 1113 1074 1076 
1115 1117 1044 1077 1080 1119 1081 1082 1083 
1088 1084 1485 1129 1087 1091 1092 1131 1127 
1490 1090 1133 1096 1494 1100 1498 1501 1104 
1541 1108 1143 1502 1149 1509 1111 1506 1112 
1147 1110 1151 1114 1116 1153 1155 1118 1120 
1159 1157 1125 1122 1165 1123 1124 1128 1161 
1565 1169 1132 1167 1130 1173 1135 1136 1134 
1171 1175 1138 1140 1139 1577 1142 1545 1144 
1148 1181 1585 1542 1152 1187 1589 1154 1150 
1156 1195 1593 1121 1158 1160 1197 1199 1162 
1163 803 1168 1164 807 811 1172 815 1176 
817 821 819 1179 1177 1180 1178 1578 1581 
825 1184 1182 1183 1188 1225 1582 1186 829 
1191 1192 1193 833 835 1590 1190 1194 1196 
837 1597 839 1200 1202 1208 1204 1602 1249 
1206 1212 1606 1610 1210 1247 1251 1207 1649 
1214 1216 1215 1213 1614 1653 1220 1217 1618 
1661 1657 1221 1224 1228 1263 1625 1622 1229 
1226 1267 1232 1230 1231 1234 1236 1237 1201 
1238 1240 1279 1245 1281 1285 1243 1242 1248 
1244 1289 1246 1252 1250 1650 1287 1689 1255 
1256 1295 1654 1693 1259 1260 1658 1299 1265 
1264 1268 1266 1272 1709 1670 1311 1274 1275 
1271 1276 1713 1673 1278 1277 1280 1317 1319 
1641 1677 1678 1282 1283 1288 1682 1323 1286 
1292 1331 1686 1291 1690 1296 1694 1733 1300 
1341 1697 1698 1303 1304 1308 1702 1310 1307 
1347 1312 1706 1710 1314 1315 1316 1355 1753 
1714 1318 1284 1320 1321 1357 1322 1328 1365 
1363 1327 1332 1730 1367 1371 1335 1373 1336 
1339 1338 1340 1344 1379 1738 1377 1741 1737 
1345 1343 1342 1348 1383 1742 1349 1351 1346 
1352 1353 1350 1354 1356 1391 1793 1358 1324 
1359 1360 1797 1399 1361 1368 1403 1364 1405 
1366 1372 1766 1809 1407 1769 1374 1375 1376 
1415 1417 1380 1384 1777 1817 1388 1782 1785 
1825 1387 1386 1392 1786 1427 1431 1790 1394 
1395 1396 1794 1435 1833 1397 1401 1398 1400 
1439 1441 1408 1404 1805 1409 1411 1449 1410 
1412 1810 1806 1453 1416 1455 1814 1418 1419 
1420 1424 1459 1821 1818 1423 1428 1822 1826 
1432 1467 1869 1471 1434 1830 1436 1437 1440 
1479 1477 1443 1448 1444 1842 1845 1447 1451 
1452 1491 1456 1495 1497 1857 1458 1460 1858 
1464 1897 1861 1463 1468 1503 1862 1472 1507 
1866 1473 1470 1475 1474 1476 1511 1513 1870 
1913 1478 1480 1482 1483 1488 1481 1484 1486 
1487 1492 1533 1496 1894 1535 1499 1500 1539 
1537 1898 1504 1508 1902 1945 1941 1512 1551 
1510 1549 1553 1515 1514 1516 1555 1518 1519 
1517 1557 1520 1917 1522 1525 1523 1528 1524 
1922 1529 1569 1527 1526 1532 1530 1573 1531 
1534 1536 1575 1571 1538 1540 1544 1543 1548 
1546 1547 1946 1552 1550 1989 1950 1554 1556 
1595 1591 1521 1558 1561 1559 1560 1599 1958 
1205 1203 1562 1563 1568 1564 1961 1209 1566 
1609 1567 1572 1970 1574 1211 1570 1576 1579 
1219 1580 1621 1583 1584 1223 1588 1982 1985 
1586 1227 1587 1986 1592 1594 1235 1633 1596 
1994 1598 1239 1600 1997 1637 1601 1605 1608 
1604 1643 1612 1607 1647 1651 1611 2010 2049 
1616 1655 1615 1613 1620 1619 2017 2018 2061 
1624 1628 1623 1665 1663 2025 2065 1626 1632 
1667 2029 2026 1634 1630 1636 1675 1638 1640 
2037 2001 1639 2038 1642 1645 1681 1685 1648 
1683 1646 1652 2046 2089 1691 1656 1695 2050 
2093 1659 1660 1664 2097 2058 1662 1668 1703 
1669 1666 1672 1711 1707 2069 1671 1674 1676 
1715 2073 1679 2077 1644 2081 1680 1725 1688 
1684 1729 1687 1692 1727 2129 1731 1696 2094 
1735 2090 1699 1700 1704 1701 1705 2105 1708 
1743 2102 2145 2109 1712 1749 1716 1755 2110 
2114 1718 1719 1717 1720 1759 2118 2117 1721 
1723 1722 1728 1726 1732 1767 1734 1736 2134 
1773 1775 1739 1740 1744 1779 2138 1745 1748 
2185 1747 1750 1746 1752 2150 2149 2146 1754 
2153 1751 1756 1795 2154 1757 1758 1724 1760 
1799 1761 1765 1762 1763 1768 1803 1770 1772 
1771 1807 1813 1776 1774 1815 2213 2170 1781 
1780 1778 1784 1819 1783 1788 1823 1789 1787 
1791 1792 1827 2186 2190 1829 2189 2229 1796 
2233 1835 2201 1764 1798 1800 1839 1837 1802 
1808 2202 1843 1811 1849 1812 1851 2210 1816 
1855 2214 1820 1859 2257 1824 1865 1828 2222 
1832 2226 2230 1831 1834 1836 1875 2234 1841 
1801 1838 1877 1804 1840 2277 1848 1844 2242 
2241 1850 1847 1846 1852 2246 1853 1854 1856 
2254 1895 1860 1864 2261 2265 1905 1863 1868 
1903 2305 1871 1867 1872 1907 2270 2269 2266 
1873 1874 1876 1915 2273 2274 2313 1878 1879 
1880 1919 2278 1885 1881 1883 1882 1888 1923 
2281 1889 1929 1887 1886 1892 1927 1893 1891 
2293 1890 1931 2290 1896 2333 1937 1899 1900 
2298 2301 1939 2337 2297 1901 1904 1908 1943 
1909 1906 1947 1912 2306 1951 1911 1949 2349 
1910 1953 1914 1916 2353 1955 2310 2314 1957 
1884 1918 1920 1925 1928 1963 1924 1930 1926 
1932 1934 1933 1935 1936 2334 2373 1938 1940 
1979 1944 1942 1948 1952 2350 1987 1993 1954 
1956 1995 2354 1991 1921 1959 1960 1999 2358 
1965 1962 1603 1968 1964 1969 1967 1971 1966 
1972 2009 1974 1973 1975 1976 1981 1617 1977 
1978 1980 1983 1984 1988 1629 1990 1627 1992 
2386 1631 1635 1996 2390 1998 2361 2000 2398 
2005 2002 2008 2402 2006 2012 2051 2410 2406 
2014 2013 2053 2016 2055 2015 2020 2057 2418 
2059 2457 2421 2022 2024 2028 2021 2422 2032 
2430 2067 2429 2030 2033 2034 2036 2035 2004 
2040 2039 2401 2085 2045 2043 2042 2048 2044 
2441 2445 2047 2052 2087 2446 2091 2054 2056 
2095 2454 2060 2497 2064 2458 2063 2062 2068 
2462 2101 2505 2103 2461 2070 2066 2072 2071 
2075 2074 2076 2115 2041 2079 2078 2080 2082 
2125 2083 2088 2086 2092 2490 2127 2486 2096 
2133 2131 2135 2493 2494 2098 2137 2099 2100 
2537 2541 2498 2141 2501 2104 2108 2106 2509 
2111 2107 2506 2112 2549 2113 2116 2510 2151 
2155 2553 2157 2084 2119 2120 2159 2121 2165 
2161 2123 2122 2128 2163 2126 2132 2169 2130 
2173 2136 2177 2139 2140 2144 2538 2142 2143 
2148 2147 2187 2152 2191 2589 2156 2593 2193 
2550 2124 2158 2160 2199 2597 2162 2205 2168 
2203 2164 2601 2209 2167 2166 2172 2207 2171 
2174 2175 2211 2176 2215 2613 2181 2178 2179 
2180 2184 2217 2183 2182 2188 2625 2223 2581 
2582 2192 2231 2629 2194 2195 2196 2594 2633 
2237 2197 2198 2200 2239 2637 2598 2208 2204 
2245 2243 2605 2641 2206 2212 2247 2606 2253 
2216 2255 2218 2219 2220 2617 2618 2259 2221 
2224 2225 2228 2227 2232 2669 2271 2235 2236 
2275 2630 2634 2673 2238 2240 2279 2638 2248 
2244 2283 2685 2249 2251 2252 2650 2250 2256 
2258 2260 2299 2658 2264 2262 2263 2268 2267 
2272 2309 2666 2670 2709 2311 2276 2315 2674 
2280 2678 2677 2717 2285 2282 2288 2284 2289 
2286 2287 2292 2329 2686 2291 2294 2295 2296 
2694 2693 2697 2300 2304 2341 2302 2303 2308 
2345 2343 2705 2307 2312 2706 2710 2316 2355 
2753 2318 2681 2319 2321 2317 2320 2357 2721 
2718 2322 2323 2325 2328 2722 2765 2326 2327 
2332 2730 2726 2729 2769 2330 2335 2733 2331 
2336 2734 2339 2338 2340 2342 2344 2348 2385 
2346 2749 2389 2347 2352 2391 2351 2356 2754 
2393 2324 2359 2360 2399 2758 2757 2365 2362 
2003 2363 2368 2762 2369 2366 2007 2367 2372 
2766 2370 2011 2371 2375 2374 2376 2377 2379 
2777 2378 2019 2380 2778 2023 2381 2383 2384 
2382 2388 2387 2027 2392 2394 2433 2031 2395 
2396 2397 2364 2400 2437 2408 2403 2802 2412 
2806 2451 2447 2407 2809 2411 2416 2414 2453 
2455 2415 2814 2420 2817 2424 2428 2825 2865 
2425 2423 2822 2426 2432 2431 2427 2434 2436 
2435 2404 2438 2440 2439 2443 2442 2448 2444 
2483 2449 2450 2452 2491 2853 2456 2495 2850 
2893 2854 2460 2459 2499 2857 2858 2901 2465 
2464 2463 2862 2468 2861 2469 2466 2467 2472 
2507 2473 2474 2513 2470 2475 2471 2476 2874 
2870 2478 2477 2479 2480 2485 2525 2482 2488 
2523 2484 2489 2487 2492 2531 2496 2533 2535 
2894 2500 2941 2504 2898 2502 2545 2503 2902 
2508 2945 2543 2909 2512 2547 2514 2515 2511 
2516 2914 2555 2953 2481 2518 2557 2517 2519 
2520 2522 2565 2561 2528 2921 2524 2922 2526 
2529 2527 2532 2567 2933 2530 2536 2534 2575 
2539 2540 2579 2937 2585 2544 2542 2942 2548 
2546 2551 2587 2552 2591 2989 2950 2554 2556 
2993 2558 2521 2559 2560 2958 2957 2961 2563 
2562 2568 2564 2603 2569 2566 2570 2571 2572 
2607 2574 2573 2576 2611 2577 2578 2977 2580 
2584 2619 2583 2982 2623 2588 2586 2590 2592 
2627 2990 3029 2595 2596 2994 2631 2635 3033 
2599 2600 2639 2998 2645 2602 2608 2643 3002 
2609 2649 2610 2612 3010 2614 2615 2616 3014 
3053 2657 2620 2624 3057 2622 2621 2628 2663 
3065 2626 2632 2667 3030 2636 3034 2671 2675 
3073 3037 2604 3001 2640 3038 3077 2642 2648 
2644 3045 3042 2646 2651 2647 2652 3089 3046 
2653 2654 2655 3050 2656 3054 2661 2701 2659 
2660 2664 2699 3058 2665 2662 2668 2703 3062 
3105 3066 2672 2707 2711 3109 2713 2676 2715 
2679 2680 3041 2719 3117 3078 2682 3085 2683 
2688 3082 3081 2689 2687 2692 3129 2690 2691 
2695 3090 2696 2735 3093 3133 2698 3101 2700 
3098 3097 2704 2741 2702 2745 3102 2708 2743 
2712 3106 2747 3149 2751 2714 2716 2755 3113 
3114 2684 2720 2725 2723 2728 3125 2727 2732 
3169 2731 3130 2736 2737 3137 2738 2740 2739 
3138 2744 3145 2742 2748 2785 2783 3142 3185 
2746 2752 2789 2787 3146 2750 2793 2756 3153 
3150 2797 2761 2724 2759 2760 3157 3121 2405 
2763 2768 2805 3165 3162 2409 2767 2771 2772 
3170 3166 2774 2413 2775 2770 2773 2776 3174 
2417 2419 2779 2780 3178 2781 2784 2782 2788 
3182 3189 2786 3186 2792 2794 2791 2795 2790 
2796 3190 3194 2798 2801 2764 2799 2800 2808 
3205 2804 3202 3201 2812 2807 2849 2811 3206 
2810 2851 2816 2815 3214 2818 2820 2819 3221 
3217 2824 2828 2823 3225 3265 2869 2826 2829 
2832 3229 2827 2830 2833 2834 2836 2835 3234 
2837 2838 2840 2845 2881 2842 2843 2848 2841 
2844 2883 2847 2846 2852 3250 2856 2855 2895 
2891 3254 3257 2897 2860 2859 3258 3297 2864 
2863 2868 2866 2867 3269 2871 3266 2872 2907 
2873 2875 2876 3273 2878 2877 2879 2880 2919 
3278 3241 2882 2885 2888 2884 2923 3325 2889 
2887 2929 2886 2892 2927 3329 3289 2890 2896 
2899 2900 2904 2939 3298 2903 2905 3302 2908 
3345 3301 3341 2906 2949 2912 2913 2910 2915 
2911 2916 3314 2918 2917 2920 3318 2925 2965 
2928 2963 2926 2930 2932 2967 3326 2934 2931 
2936 2935 2938 2940 2979 3338 3377 2943 2944 
2948 3342 2981 2946 2951 2947 2952 2954 2955 
2956 2995 2924 2959 2960 2999 3357 2962 2968 
2969 2966 3009 2972 2971 3409 2970 2975 2973 
2974 2976 3015 3373 3374 2978 2980 3019 2985 
2984 3025 2983 2988 3385 2987 2986 2992 3386 
2991 2996 3031 2964 2997 3000 3005 3003 3008 
3402 3441 3006 3007 3012 3047 3410 3013 3011 
3016 3414 3051 3018 3061 3017 3020 3417 3418 
3021 3425 3022 3024 3023 3028 3465 3461 3027 
3026 3426 3032 3067 3069 3469 3035 3036 3430 
3434 3039 3004 3040 3079 3438 3043 3048 3442 
3049 3052 3446 3449 3055 3056 3454 3450 3453 
3060 3059 3064 3457 3458 3063 3068 3462 3103 
3072 3107 3074 3075 3070 3071 3076 3115 3474 
3044 3080 3478 3485 3083 3088 3525 3084 3481 
3482 3086 3087 3092 3486 3094 3091 3095 3493 
3096 3494 3141 3099 3100 3104 3501 3502 3108 
3143 3545 3541 3505 3147 3112 3506 3509 3510 
3110 3111 3116 3553 3118 3119 3120 3159 3521 
3122 3123 3128 3127 3126 3132 3526 3529 3134 
3131 3135 3136 3534 3177 3139 3140 3144 3148 
3542 3549 3187 3152 3589 3546 3151 3154 3155 
3156 3550 3158 3124 3160 3558 3557 3161 2803 
3163 3168 3164 3209 3167 3172 3566 3171 3569 
3570 2813 3173 3573 3176 3175 3574 3181 3179 
3180 3578 2821 3184 3183 3582 3188 3581 3585 
3586 3192 3191 3193 3195 2831 3196 3593 3590 
3197 3198 3199 3597 2839 3200 3208 3602 3204 
3203 3641 3645 3210 3212 3211 3609 3247 3213 
3216 3613 3215 3251 3610 3614 3218 3220 3621 
3219 3224 3222 3223 3228 3226 3232 3626 3669 
3231 3230 3236 3235 3275 3237 3238 3240 3277 
3279 3239 3638 3245 3243 3242 3248 3285 3283 
3249 3246 3252 3649 3253 3256 3255 3295 3650 
3259 3260 3264 3658 3262 3261 3263 3662 3268 
3705 3661 3267 3272 3311 3274 3270 3271 3276 
3315 3713 3317 3244 3280 3319 3281 3677 3282 
3288 3685 3682 3323 3725 3286 3287 3292 3327 
3291 3293 3290 3294 3296 3333 3693 3694 3299 
3300 3304 3697 3305 3303 3308 3701 3309 3306 
3310 3307 3312 3749 3313 3353 3351 3316 3355 
3714 3284 3320 3321 3359 3365 3322 3328 3363 
3765 3332 3726 3369 3331 3330 3334 3335 3336 
3734 3773 3337 3339 3340 3737 3344 3343 3348 
3381 3349 3346 3389 3347 3352 3387 3350 3354 
3393 3356 3391 3395 3358 3324 3360 3758 3797 
3362 3368 3364 3403 3801 3370 3371 3367 3366 
3372 3766 3375 3376 3415 3413 3774 3379 3380 
3378 3778 3382 3383 3384 3388 3785 3421 3781 
3429 3392 3790 3786 3427 3390 3394 3433 3396 
3794 3361 3397 3398 3401 3761 3399 3400 3439 
3405 3408 3404 3802 3407 3411 3406 3412 3806 
3447 3451 3810 3416 3455 3813 3814 3817 3419 
3420 3424 3818 3422 3423 3428 3865 3821 3432 
3471 3829 3826 3830 3431 3435 3436 3473 3833 
3834 3437 3440 3837 3838 3877 3445 3443 3448 
3842 3885 3841 3845 3452 3889 3456 3854 3495 
3853 3850 3857 3459 3460 3897 3499 3858 3464 
3463 3468 3901 3470 3466 3467 3472 3507 3869 
3511 3475 3476 3515 3873 3870 3874 3477 3444 
3479 3480 3517 3878 3917 3483 3488 3523 3484 
3925 3489 3490 3487 3492 3886 3527 3491 3496 
3890 3497 3498 3500 3898 3504 3503 3902 3508 
3905 3512 3906 3547 3513 3514 3516 3555 3519 
3518 3520 3957 3522 3565 3528 3563 3921 3965 
3532 3926 3929 3530 3567 3533 3535 3933 3531 
3536 3571 3934 3537 3538 3540 3539 3938 3577 
3543 3544 3548 3945 3942 3941 3552 3949 3551 
3950 3554 3556 3954 3595 3591 3524 3559 3560 
3958 3599 3561 3562 3568 3962 3564 3605 3207 
3572 3969 3966 3970 3576 3575 3973 3579 3580 
3584 3625 3583 3588 3982 3587 3227 3592 3989 
3986 3990 3233 3594 3596 3598 3600 3601 3998 
45 2 5 3608 3603 10 6 3606 3612 
3607 14 3616 3611 21 3617 3618 3620 3619 
3624 17 3665 3622 3628 65 26 3630 3632 
3667 29 3631 3634 3636 3635 3675 3637 3604 
3640 37 3642 3643 42 85 3648 3683 50 
46 3647 3646 3652 3687 53 54 3653 3651 
3654 3655 3656 58 3657 3659 3660 3664 61 
62 3663 3668 3670 3666 3709 3672 3711 74 
3671 3673 3674 3676 3715 3681 3644 3679 3678 
3680 3688 3684 3723 89 3729 3689 3686 3692 
129 3690 3691 3695 3696 3735 141 3699 3698 
3700 3704 105 3702 102 3703 3708 3706 3707 
3712 3747 3710 3753 3716 3751 3717 3718 3757 
3719 3720 3759 3722 3728 3763 126 3769 3727 
3732 169 3767 130 134 3730 3731 3733 3736 
3771 137 3739 138 3738 3740 3779 181 3741 
3745 3742 3743 3744 142 3748 3746 3789 3752 
3787 3750 3754 3755 154 3756 3791 3795 3721 
3724 158 3760 3799 3762 3805 3768 3764 3770 
3772 3807 3775 174 3776 3815 177 3777 178 
3780 3782 3783 182 3784 3788 229 186 3792 
190 194 233 3793 3796 3835 3831 3798 198 
3800 3839 245 3803 3808 3843 206 3809 3811 
3812 213 3816 214 3855 218 217 3819 3820 
221 265 3824 222 3825 225 3822 3823 3828 
226 269 3827 3832 3867 3871 273 230 3836 
3875 238 241 3804 3840 3879 242 3848 3844 
3849 3846 249 3847 3851 246 3852 250 253 
3893 293 3856 3895 257 258 261 3859 3860 
3864 262 3862 3863 3861 3868 3909 3866 266 
3872 3907 3913 274 3876 3915 278 3880 3919 
281 3882 285 3883 3888 325 3891 286 3887 
3892 3894 294 3896 3935 333 3899 3900 298 
341 3939 301 302 305 3904 3903 3908 310 
3912 3951 3910 3947 3911 3914 3916 3955 3953 
3881 3884 3918 317 318 3920 322 3922 321 
3923 3928 3927 3932 3930 3931 3936 3975 338 
3937 337 3940 3944 3977 345 3943 3948 3983 
3946 3952 3987 3956 3993 393 3959 3924 358 
3960 361 362 3963 3968 3964 370 9 366 
3967 3972 374 3615 3971 3976 3974 378 3978 
3979 377 3980 3981 3985 3623 3984 382 3988 
3629 3627 3991 3992 3633 3995 3994 3996 3997 
3961 3999 3639 4000 
type 1 4000 int
1 1 1 1 1 1 1 1 1 
1 1 1 1 1 1 1 1 1 
1 1 1 1 1 1 1 1 1 
1 1 1 1 1 1 1 1 1 
1 1 1 1 1 1 1 1 1 
1 1 1 1 1 1 1 1 1 
1 1 1 1 1 1 1 1 1 
1 1 1 1 1 1 1 1 1 
1 1 1 1 1 1 1 1 1 
1 1 1 1 1 1 1 1 1 
1 1 1 1 1 1 1 1 1 
1 1 1 1 1 1 1 1 1 
1 1 1 1 1 1 1 1 1 
1 1 1 1 1 1 1 1 1 
1 1 1 1 1 1 1 1 1 
1 1 1 1 1 1 1 1 1 
1 1 1 1 1 1 1 1 1 
1 1 1 1 1 1 1 1 1 
1 1 1 1 1 1 1 1 1 
1 1 1 1 1 1 1 1 1 
1 1 1 1 1 1 1 1 1 
1 1 1 1 1 1 1 1 1 
1 1 1 1 1 1 1 1 1 
1 1 1 1 1 1 1 1 1 
1 1 1 1 1 1 1 1 1 
1 1 1 1 1 1 1 1 1 
1 1 1 1 1 1 1 1 1 
1 1 1 1 1 1 1 1 1 
1 1 1 1 1 1 1 1 1 
1 1 1 1 1 1 1 1 1 
1 1 1 1 1 1 1 1 1 