# vtk DataFile Version 4.0
Generated by LAMMPS
ASCII
DATASET POLYDATA
POINTS 4000 float
0.627098 1.53304 1.58047 4.73988 1.68191 1.46238 2.77213 3.66226 1.58094 
2.89741 1.55829 3.69477 4.48703 3.72392 3.76694 0.82831 3.76734 3.54954 
2.59307 -0.503518 1.59926 0.80065 -0.379508 3.75834 4.66568 3.89326 -0.380983 
4.74336 -0.30324 -0.393003 8.60173 1.61733 1.54737 6.65765 3.64572 1.62927 
6.56325 1.66183 3.59021 8.45094 3.50483 3.7026 6.66634 -0.559412 1.6818 
8.61539 -0.420366 3.97256 6.52285 1.80664 -0.540323 12.3739 1.56294 1.59081 
10.4829 3.80019 1.66969 10.5964 1.63742 3.64977 12.4055 3.8833 3.8502 
10.4945 -0.562441 1.76046 16.3557 1.60244 1.65711 14.4583 3.69234 1.67056 
14.1385 1.69657 3.62871 16.2255 3.65829 3.64351 16.1207 -0.43821 3.88064 
14.3655 -0.432207 1.69941 16.1128 3.81489 -0.545793 16.3098 -0.427514 -0.280557 
20.3048 1.64419 1.67872 18.2199 3.6325 1.53021 22.2044 3.75784 1.57402 
18.2073 1.62403 3.56745 22.2914 1.67111 3.72377 20.0828 3.67052 3.63974 
20.2959 -0.473711 3.73637 18.2204 -0.472001 1.70658 24.1696 1.84399 1.65042 
26.1621 3.77657 1.77601 26.2068 1.715 3.85636 24.0426 3.5779 3.81053 
27.9831 1.50216 1.50709 30.0375 3.75868 1.47129 29.9622 1.65247 3.65825 
28.004 3.98569 3.66053 30.1796 -0.334633 1.53853 27.9183 3.53413 -0.395487 
32.0623 1.59822 1.52838 34.0901 3.54793 1.49506 34.0337 1.48962 3.65483 
32.0449 3.69804 3.68043 32.036 -0.472069 3.71542 32.0927 3.72862 -0.568521 
36.0828 1.45741 1.34892 37.7566 3.65396 1.61653 37.7893 1.80917 3.71803 
35.7083 3.74493 3.74336 36.0075 3.74644 -0.56643 39.8546 3.83918 -0.150064 
4.64737 5.78364 1.71699 2.6361 7.80282 1.6974 2.66706 5.78497 3.70284 
0.698337 7.86438 3.88055 4.60548 7.86523 3.81469 0.675916 7.96796 -0.411554 
4.81707 7.9855 -0.568916 2.79248 5.93866 -0.340442 8.57526 5.72489 1.65769 
6.70086 7.92669 1.67334 6.52385 5.6076 3.74079 8.55684 7.80278 3.80555 
12.571 5.87114 1.79081 10.4638 7.8272 1.89194 10.4716 5.8228 3.8129 
12.4203 7.83208 3.83991 16.1424 5.83504 1.78492 14.3575 7.91758 1.85236 
14.3849 5.75031 3.96766 16.2063 7.94049 3.62353 14.4003 6.03674 -0.234684 
16.355 8.01474 -0.0978569 20.3173 5.65973 1.635 18.3682 7.88876 1.71838 
22.331 7.62927 1.68842 18.2078 5.74162 3.76846 22.1617 5.7514 3.90397 
20.2115 7.66373 3.65554 18.0639 5.78698 -0.426754 22.1588 5.76607 -0.335678 
24.2683 5.75379 1.62653 26.025 7.86521 1.65798 26.0323 5.86247 3.8077 
24.1085 7.93159 4.0416 27.9395 5.74826 1.52002 30.0278 7.72105 1.5409 
29.9409 5.78627 3.55387 27.9663 7.89098 3.71807 34.1128 5.52639 -0.480723 
32.02 5.49316 1.75987 33.9621 7.73233 1.80403 33.969 5.81116 3.80476 
31.9102 7.71827 3.82622 32.0464 7.65763 -0.334676 39.7476 5.88608 1.65263 
35.8842 5.77694 1.68188 35.7822 7.8974 -0.38786 37.811 7.91023 1.76306 
37.8157 5.63891 3.57833 35.9455 7.89227 3.90719 2.69582 9.74881 -0.395755 
4.82596 9.87044 1.59879 2.7025 11.8995 1.64132 2.68799 10.0453 3.53038 
4.65887 12.0772 3.73019 0.783321 9.84985 1.8479 4.82204 11.9181 -0.510491 
8.67578 9.89807 1.68719 6.72491 12.1076 1.65242 6.59092 9.82163 3.80084 
8.67745 11.9561 3.66917 8.68725 12.1159 -0.510993 6.61583 9.98755 -0.386567 
12.3508 9.78402 1.95172 10.506 12.0171 1.64803 10.5736 9.91681 3.97277 
12.3002 12.2414 3.79284 12.4867 12.0871 -0.542666 16.3279 9.92233 1.75727 
14.2307 11.8588 1.78199 16.2735 11.8487 -0.30069 14.2294 9.98536 3.89396 
16.2322 12.1392 3.96408 20.2913 9.85098 1.89112 18.2087 12.1437 1.84054 
21.9338 11.9945 1.60185 18.1956 10.0634 3.76662 22.1513 9.76957 3.80842 
20.1269 12.0181 3.74613 20.0294 12.031 -0.410833 24.0486 9.87849 1.77285 
25.942 11.9292 1.63509 26.0727 9.95928 3.76095 24.1213 12.1491 3.69667 
24.1453 11.7822 -0.336942 26.1552 9.82411 -0.282473 30.2203 9.82982 -0.460303 
28.0225 9.98796 1.6431 30.1141 12.0428 1.59483 29.946 9.97544 3.67014 
28.0869 11.9094 3.61817 31.9535 9.86802 1.89609 34.0814 12.0685 1.49979 
33.9951 9.99837 3.79941 32.1882 12.0507 3.63 39.7516 12.118 3.93327 
39.7765 11.7637 -0.395819 35.8406 9.92982 1.78873 37.8628 11.884 1.67844 
37.7721 9.88808 3.84934 35.9016 11.9823 3.77308 37.7135 9.83424 -0.441985 
4.71377 14.0036 1.49759 2.66364 16.0316 1.80554 2.79691 14.0968 3.72891 
4.77569 16.0449 3.74774 0.707965 16.0641 -0.341437 0.67415 15.8799 3.7002 
4.52988 16.2138 -0.40338 8.56108 14.0621 1.61971 6.63879 16.1966 1.56459 
6.66451 13.9383 3.61646 8.50442 16.2446 3.76788 6.6518 14.1797 -0.385394 
8.68091 16.0882 -0.406241 10.414 13.9881 -0.502427 12.3016 13.9542 1.7374 
10.5134 16.1263 1.81925 12.3185 16.1589 -0.276147 10.3659 14.0177 3.85551 
12.369 16.0533 3.83344 16.2092 14.0565 1.67671 14.4038 16.2629 1.70854 
14.3926 14.1238 3.69459 16.4552 16.1152 3.74196 16.2406 16.2138 -0.304804 
20.2032 14.2064 1.81898 18.2101 15.9855 1.66329 22.371 16.0804 1.70987 
18.3882 14.0724 3.92938 22.1488 14.1721 3.90896 20.3292 16.2694 3.65897 
24.0055 13.9693 1.56866 26.1253 15.9536 1.54243 26.0308 14.0729 3.65746 
24.1477 16.2442 3.66427 28.0486 14.0465 1.66112 28.2033 15.9877 -0.621679 
29.9979 16.0749 1.70152 30.033 14.0437 3.65804 28.0715 16.1807 3.70147 
31.9528 14.252 1.82753 33.8298 16.2533 1.64195 33.9228 14.0878 3.69237 
31.8209 16.167 3.70348 33.9468 14.2187 -0.46907 39.7917 13.9376 1.72438 
35.9165 14.0295 1.62241 37.8725 15.9559 1.59943 37.8266 13.9517 3.7309 
35.7871 16.2903 3.65166 4.53295 18.0015 1.80395 2.66093 20.3205 1.65336 
4.44364 22.273 1.59211 2.58259 18.0966 3.75749 0.82079 20.0973 3.61055 
2.72538 22.1919 3.61361 4.63192 20.2147 3.70355 4.61726 20.2777 -0.217811 
0.675066 17.9615 1.61305 0.762468 20.1618 -0.446342 2.69453 22.2817 -0.561633 
2.59727 18.2365 -0.37322 8.52606 18.2542 1.80808 6.55769 20.4399 1.64796 
8.57587 22.3755 1.77683 6.64692 18.1614 3.67513 6.56185 22.4672 3.71153 
8.57069 20.4052 3.68192 12.3354 18.0777 1.75683 10.4473 20.2156 1.7633 
12.4377 22.2785 1.58241 10.5032 18.1594 3.91177 10.6426 22.378 3.60354 
12.3561 20.1843 4.00802 10.3897 22.3865 -0.480024 12.4476 20.1581 -0.260761 
16.2821 18.2028 1.76102 14.3199 20.2232 1.87783 16.3277 22.5245 1.89042 
14.3549 18.0739 3.72325 14.1461 22.4091 3.7915 16.2763 20.3299 3.75712 
20.2302 18.0599 1.50341 18.1029 20.3935 1.80211 22.1714 20.2534 1.51665 
20.2321 22.124 1.71951 18.2985 18.1672 3.59492 22.1328 18.3477 3.68373 
18.333 22.3861 3.67395 20.2447 20.2156 3.81643 22.223 22.2173 3.93338 
22.148 22.3228 -0.389553 22.4302 18.1287 -0.55281 24.1964 18.198 1.65945 
26.023 20.2506 1.6035 24.0396 22.1724 1.7118 26.127 18.3291 3.70288 
24.0501 20.2474 3.76116 26.0921 22.4296 3.709 24.0979 20.2653 -0.617064 
27.9385 18.1713 1.67315 30.1541 22.4192 -0.526405 29.9428 20.34 1.84873 
27.9845 22.2132 1.65927 30.0709 18.3684 3.76391 27.9464 20.3457 3.7162 
30.0044 22.3879 3.74455 27.9993 20.2933 -0.443019 31.9013 18.1489 1.57797 
33.9415 20.1219 1.52776 32.0002 22.3237 1.73507 33.8412 18.1618 3.52259 
32.0974 20.2426 3.69279 33.9429 22.3463 3.6595 33.8073 22.2407 -0.30775 
39.8892 22.2925 1.63424 35.9453 18.2871 1.60932 37.9097 22.2949 -0.441579 
37.9992 20.1128 1.65041 36.0181 22.2763 1.60933 37.9861 18.0885 3.77976 
35.8719 20.3016 3.70245 37.9641 22.2718 3.8903 37.7789 18.069 -0.38417 
2.72155 24.4079 1.632 4.57945 26.5687 1.64411 2.60923 26.4773 3.72061 
4.48356 24.2591 3.84294 4.61695 24.3388 -0.445484 6.49792 24.3605 1.64994 
8.48377 26.3773 1.63689 6.48025 26.4735 3.62428 8.52243 24.461 3.68995 
10.4924 26.2822 -0.437352 10.3967 24.2616 1.64189 12.5086 26.4039 1.62169 
10.5756 26.441 3.60074 12.4121 24.5027 3.7187 12.4893 24.4084 -0.25799 
14.3768 24.4138 1.86193 16.2988 26.322 1.62778 14.4718 26.6555 3.82868 
16.3557 24.4493 3.91598 18.2502 24.5135 1.64302 22.2841 24.4361 1.77692 
20.3116 26.4817 1.71469 18.3764 26.5284 3.71255 20.2835 24.3464 3.7385 
22.3341 26.4615 3.90691 22.1436 26.3429 -0.412845 20.1499 24.3156 -0.294394 
25.8458 24.1725 1.68496 23.979 26.4107 1.60798 24.1842 24.4189 3.65982 
26.2246 26.3915 3.58534 30.0808 24.3841 1.68523 28.049 26.3254 1.5865 
28.0452 24.298 3.76059 29.8169 26.4567 3.64037 33.9395 24.3612 1.61719 
31.8963 26.3036 1.70187 31.9695 24.5088 3.70315 33.9923 26.505 3.78372 
31.9326 24.4258 -0.348274 33.7001 26.3361 -0.364337 39.6086 26.2965 1.63171 
39.8444 24.296 3.65635 37.7078 24.2762 1.55472 35.8605 26.4168 1.66804 
35.9373 24.3613 3.716 37.7575 26.4545 3.82405 35.6602 24.3972 -0.443936 
37.7117 26.3313 -0.559386 2.65878 28.4621 1.54559 0.907812 30.5753 1.73426 
4.61585 30.5201 1.59061 2.82918 30.4447 3.67343 4.68206 28.5504 3.73951 
6.62284 28.5566 1.68599 8.47213 30.6619 1.56066 6.68586 30.7067 3.76044 
8.62891 28.4566 3.68215 10.4255 28.3243 1.59406 12.3868 30.6452 1.63418 
10.2794 30.6649 3.77679 12.3518 28.5916 3.69582 14.4865 28.3906 1.69741 
16.3615 30.6495 1.97574 14.4067 30.465 3.96477 16.4709 28.5062 3.74316 
18.2779 28.3896 1.70641 22.1293 28.3997 1.80566 20.3253 30.6427 1.70314 
18.3499 30.6137 3.50728 20.3232 28.3739 3.83888 22.1937 30.5656 3.57176 
22.2868 30.4301 -0.170722 18.3694 30.6318 -0.304041 26.1942 28.5544 1.64368 
24.2152 30.4542 1.56554 24.2154 28.4987 3.70458 26.0904 30.5315 3.77922 
29.9954 28.5289 1.5951 28.1263 30.4839 1.6752 28.1962 28.7184 3.8321 
30.2125 30.6241 3.6349 31.916 28.3572 -0.451579 33.965 28.5735 1.6624 
31.8638 30.4618 1.55862 32.0204 28.5571 3.69636 33.8511 30.6145 3.75527 
39.8328 28.5505 3.68032 37.7493 28.4493 1.60903 36.0675 30.4829 1.69949 
35.785 28.5853 3.83108 37.7523 30.5389 3.7211 37.8057 30.4683 -0.420946 
2.71722 32.573 1.69253 4.64376 34.7126 1.68058 2.75326 34.5935 3.79101 
4.81736 32.6286 3.45998 0.775883 34.6096 1.44913 4.65731 32.5084 -0.427218 
6.5893 32.6661 1.61419 8.54148 34.773 1.57826 6.60417 34.7579 3.70903 
8.44073 32.6497 3.73447 10.5146 32.7288 1.63154 12.2206 34.6871 1.56854 
10.5014 34.6627 3.80755 12.3657 32.5828 3.73892 14.3661 32.6898 1.73221 
16.1966 34.7155 1.64458 14.3634 34.8286 3.85132 16.3602 32.5738 3.8013 
14.2464 34.6709 -0.252589 18.3815 32.569 1.70249 22.2157 32.6398 1.72603 
20.2995 34.6786 1.5893 18.055 34.7671 3.84576 19.9759 32.8153 3.85096 
22.1991 34.7014 3.80491 22.3197 34.8253 -0.204217 26.31 32.5251 1.72502 
[...]
POINT_DATA 4000
FIELD FieldData 6
id 1 4000 int
4 8 43 402 445 441 3 401 45 
5 12 47 406 449 7 409 6 16 
51 410 453 11 20 55 414 457 417 
15 57 17 24 59 63 418 422 461 
421 19 28 67 426 465 32 71 430 
469 31 69 36 75 434 473 433 73 
40 79 438 477 77 41 48 83 442 
481 485 81 85 42 52 87 446 489 
56 91 450 493 60 95 454 497 54 
97 64 99 103 458 462 501 58 62 
68 107 466 505 72 111 470 509 74 
76 115 474 513 113 44 80 117 119 
478 517 82 88 123 482 525 84 125 
92 127 486 529 129 86 96 131 490 
533 133 100 135 137 494 537 104 139 
143 498 502 541 141 108 147 506 545 
145 106 110 112 151 510 549 116 155 
514 553 521 121 120 159 518 557 118 
128 163 522 565 161 561 165 132 167 
526 569 126 169 130 136 171 173 530 
573 140 175 534 577 177 144 179 183 
538 542 581 148 187 546 585 152 189 
191 550 589 156 195 554 593 154 124 
160 199 558 597 168 203 208 562 601 
602 605 205 164 201 202 162 172 207 
212 566 606 609 176 211 216 570 610 
613 210 213 180 215 220 574 614 617 
184 219 223 224 578 582 618 621 622 
222 182 188 227 228 586 625 626 225 
192 230 231 232 590 629 630 229 196 
235 236 594 633 634 234 204 200 238 
239 240 598 637 638 198 243 248 642 
645 245 247 252 646 649 250 251 256 
650 653 253 255 260 654 657 259 263 
264 658 661 662 262 261 267 268 665 
666 271 272 669 670 275 276 673 674 
273 274 244 641 279 280 677 678 277 
278 283 284 288 682 685 287 292 686 
689 291 296 690 693 295 300 694 697 
299 303 304 698 701 702 302 298 307 
308 705 706 311 312 709 710 313 315 
316 713 714 681 319 320 717 718 318 
323 328 722 725 324 325 327 332 726 
729 331 336 730 733 335 340 734 737 
334 339 343 344 738 741 742 342 347 
348 745 746 351 352 749 750 355 356 
753 754 721 359 360 757 758 357 358 
405 361 363 368 762 765 761 365 367 
372 766 769 413 371 376 770 773 370 
375 380 774 777 377 23 379 383 384 
778 781 782 378 381 382 425 27 387 
388 785 786 385 386 429 391 392 789 
790 389 35 395 396 793 794 393 394 
437 364 39 399 400 797 798 37 404 
408 443 802 845 841 403 412 447 806 
849 809 411 416 451 810 813 853 420 
455 814 857 415 424 459 463 818 821 
822 861 419 423 428 467 825 826 865 
427 432 471 830 869 436 475 834 873 
833 440 479 838 877 801 448 483 842 
885 444 452 487 846 889 456 491 850 
893 460 495 854 897 464 499 503 858 
862 901 468 507 866 905 472 511 870 
909 476 515 874 913 881 480 519 878 
917 488 523 882 925 492 527 886 929 
496 531 890 933 500 535 894 937 504 
539 543 898 902 941 508 547 906 945 
512 551 910 949 516 555 914 953 484 
921 520 559 918 957 528 563 922 965 
961 532 567 926 969 536 571 930 973 
540 575 934 977 544 579 583 938 942 
981 548 587 946 985 986 552 591 950 
989 556 595 954 993 524 560 599 958 
997 568 603 608 962 1005 604 1001 1002 
572 607 612 966 1009 576 611 616 970 
1010 1013 580 615 620 974 1017 584 619 
623 624 978 982 1018 1021 1022 588 627 
628 1025 1026 592 631 632 990 1029 1030 
596 635 636 994 1033 1034 564 600 639 
640 998 1037 1038 643 648 1042 1045 644 
1006 647 652 1046 1049 651 656 1050 1053 
1014 655 660 1054 1057 659 663 664 1058 
1061 1062 667 668 1065 1066 671 672 1069 
1070 675 676 1073 1074 1041 679 680 1077 
1078 683 688 1082 1085 1081 684 687 692 
1086 1089 691 696 1090 1093 695 700 1094 
1097 699 704 1098 1101 1102 703 707 708 
1105 1106 711 712 1109 1110 715 716 1113 
1114 719 720 1117 1118 723 728 1122 1125 
724 1121 727 732 1126 1129 731 736 1130 
1133 735 740 1134 1137 739 743 744 1138 
1141 1142 747 748 1145 1146 751 752 1149 
1150 755 756 1153 1154 759 760 1157 1158 
805 763 768 1162 1165 1161 764 407 767 
772 1166 1169 771 776 1170 1173 817 775 
780 1174 1177 779 783 784 1178 1181 1182 
787 788 1185 1186 829 431 791 792 1189 
1190 435 795 796 1193 1194 837 439 799 
800 1197 1198 808 843 1202 1241 1245 803 
812 847 1206 1249 816 851 1210 1253 1213 
820 855 1214 1257 815 1217 824 859 863 
1218 1222 1261 1221 819 823 828 867 1226 
1265 832 871 1230 1269 831 1229 836 875 
1234 1273 804 840 879 1238 1277 844 848 
883 1242 1285 1281 852 887 1246 1289 856 
891 1250 1293 860 895 1254 1297 864 899 
903 1258 1262 1301 868 907 1266 1305 872 
911 1270 1309 876 915 1274 1313 880 919 
1278 1317 888 923 1282 1325 892 927 1286 
1329 896 931 1290 1333 900 935 1294 1337 
904 939 943 1298 1302 1341 908 947 1306 
1345 912 951 1310 1349 916 955 1314 1353 
1321 884 920 959 1318 1357 928 963 1322 
1365 924 932 967 1326 1369 936 971 1330 
1373 940 975 1334 1377 1338 944 979 983 
1342 1381 948 987 1346 1385 988 952 991 
1350 1389 956 995 1354 1393 1361 960 999 
1358 1397 968 1003 1008 1362 1402 1405 1401 
1004 964 972 1007 1012 1366 1409 1406 976 
1011 1016 1370 1410 1413 980 1015 1020 1374 
1414 1417 984 1019 1023 1024 1378 1382 1418 
1421 1422 1027 1028 1386 1425 1426 992 1031 
1032 1390 1429 1430 996 1035 1036 1394 1433 
1434 1000 1039 1040 1398 1437 1438 1043 1048 
1442 1445 1044 1047 1052 1446 1449 1051 1056 
1450 1453 1055 1060 1454 1457 1059 1063 1064 
1458 1461 1462 1067 1068 1465 1466 1071 1072 
1469 1470 1075 1076 1473 1474 1441 1079 1080 
1477 1478 1083 1088 1482 1485 1084 1087 1092 
1486 1489 1091 1096 1490 1493 1095 1100 1494 
1497 1099 1103 1104 1498 1501 1502 1107 1108 
1505 1506 1111 1112 1509 1510 1115 1116 1513 
1514 1481 1119 1120 1517 1518 1123 1124 1128 
1522 1525 1127 1132 1526 1529 1131 1136 1530 
1533 1135 1140 1534 1537 1139 1143 1144 1538 
1541 1542 1147 1148 1545 1546 1151 1152 1549 
1550 1155 1156 1553 1554 1521 1159 1160 1557 
1558 1201 1205 1163 1168 1562 1565 1164 807 
1209 1167 1172 1566 1569 811 1171 1176 1570 
1573 1175 1180 1574 1577 1179 1183 1184 1578 
1581 1582 827 1225 1187 1188 1585 1586 1191 
1192 1589 1590 835 1233 1195 1196 1593 1594 
839 1237 1561 1199 1200 1597 1598 1208 1243 
1602 1645 1203 1212 1247 1606 1649 1216 1251 
1610 1653 1613 1220 1255 1614 1657 1215 1224 
1259 1263 1618 1622 1661 1228 1267 1626 1665 
1227 1232 1271 1630 1669 1231 1236 1275 1634 
1673 1641 1204 1240 1279 1638 1677 1239 1244 
1248 1283 1642 1685 1252 1287 1646 1689 1256 
1291 1650 1693 1260 1295 1654 1697 1299 1264 
1303 1658 1662 1701 1268 1307 1666 1705 1272 
1311 1670 1709 1276 1315 1674 1713 1681 1280 
1319 1678 1717 1288 1323 1682 1725 1284 1723 
1292 1327 1686 1729 1296 1331 1690 1733 1300 
1335 1694 1737 1304 1339 1343 1698 1702 1741 
1308 1347 1706 1745 1312 1351 1710 1749 1316 
1355 1714 1753 1721 1320 1359 1718 1757 1328 
1363 1722 1765 1761 1324 1332 1367 1726 1769 
1336 1371 1730 1773 1340 1375 1734 1777 1738 
1344 1379 1383 1742 1781 1348 1387 1746 1785 
1352 1391 1750 1789 1356 1395 1754 1793 1360 
1399 1758 1797 1368 1403 1408 1762 1802 1805 
1364 1372 1407 1412 1766 1806 1809 1376 1411 
1416 1770 1810 1813 1380 1415 1420 1774 1814 
1817 1384 1419 1423 1424 1778 1782 1818 1821 
1822 1388 1427 1428 1786 1825 1826 1392 1431 
1432 1790 1829 1830 1396 1435 1436 1794 1833 
1834 1404 1801 1400 1439 1440 1798 1837 1838 
1443 1448 1842 1845 1444 1841 1447 1452 1846 
1849 1451 1456 1850 1853 1455 1460 1854 1857 
1459 1463 1464 1858 1861 1862 1467 1468 1865 
1866 1471 1472 1869 1870 1475 1476 1873 1874 
1479 1480 1877 1878 1483 1488 1882 1885 1881 
1487 1492 1886 1889 1491 1496 1890 1893 1495 
1500 1894 1897 1499 1503 1504 1898 1901 1902 
1899 1507 1508 1905 1906 1511 1512 1909 1910 
1515 1516 1913 1914 1484 1519 1520 1917 1918 
1523 1528 1922 1925 1921 1527 1532 1926 1929 
1531 1536 1930 1933 1535 1540 1934 1937 1539 
1543 1544 1938 1941 1942 1547 1548 1945 1946 
1551 1552 1949 1950 1951 1555 1556 1953 1954 
1524 1559 1560 1957 1958 1605 1601 1563 1564 
1568 1962 1965 1609 1207 1567 1572 1966 1969 
1211 1571 1576 1970 1973 1617 1575 1580 1974 
1977 1621 1219 1223 1579 1584 1978 1981 1982 
1583 1625 1587 1588 1985 1986 1629 1591 1592 
1989 1990 1235 1633 1595 1596 1993 1994 1637 
1961 1599 1600 1997 1998 1608 1643 2002 2004 
2008 2043 2045 2005 1603 2003 1612 1647 2006 
2012 2047 2049 1616 1651 2010 2016 2051 2053 
1620 1655 2014 2020 2055 2057 1615 2017 2019 
1624 1659 1663 2018 2022 2023 2024 2059 2061 
2063 2021 1623 1619 1628 1667 2025 2026 2028 
2065 2067 1627 1632 1671 2030 2032 2069 2071 
2031 1631 1636 1675 2034 2036 2073 2075 2033 
2035 1640 2001 2041 1604 1679 2038 2039 2040 
2077 2079 1648 1683 2042 2048 2081 2083 2085 
2044 1652 1687 2046 2052 2087 2089 1656 1691 
2050 2056 2091 2093 1660 1695 2054 2060 2095 
2097 1699 2058 1664 1703 2062 2064 2099 2101 
2103 1668 1707 2066 2068 2105 2107 1672 1711 
2070 2072 2109 2111 1676 1715 2074 2076 2113 
2115 1644 1680 1719 2078 2080 2117 2119 1688 
2082 2084 2088 2123 2125 2121 1692 1727 2086 
2092 2127 2129 1696 1731 2090 2096 2131 2133 
1700 1735 2094 2100 2135 2137 1704 1739 1743 
2098 2102 2104 2139 2141 2143 1708 1747 2106 
2108 2145 2147 1712 1751 2110 2112 2149 2151 
1716 1755 2114 2116 2153 2155 1684 1720 1759 
2118 2120 2157 2159 1728 1763 2122 2128 2163 
2165 2161 2124 1724 1732 1767 2126 2167 2169 
1736 1771 2130 2136 2171 2173 1740 1775 2134 
2140 2175 2177 1783 1744 1779 2138 2142 2144 
2181 2183 2179 1748 1787 2146 2148 2185 2187 
1752 1791 2150 2152 2189 2191 1756 1795 2154 
2156 2193 2195 1760 1799 2158 2160 2197 2199 
1768 1803 1808 2162 2168 2202 2203 2205 2208 
2201 1804 1772 1807 1812 2166 2172 2206 2209 
2212 2207 1776 1811 1816 2170 2176 2210 2211 
2213 2216 1780 1815 1820 2174 2180 2214 2215 
2217 2220 1784 1819 1823 1824 2178 2182 2184 
2218 2219 2221 2223 2224 2222 1788 1827 1828 
2186 2188 2225 2226 2227 2228 1792 1831 1832 
2190 2192 2229 2230 2231 2232 1796 1835 1836 
2194 2196 2233 2234 2235 2236 1764 2204 2164 
1800 1839 1840 2198 2200 2237 2238 2239 2240 
1843 1848 2242 2243 2245 2248 2241 1844 1847 
1852 2246 2247 2249 2252 1851 1856 2250 2251 
2253 2256 1855 1860 2254 2255 2257 2260 1859 
1863 1864 2258 2259 2261 2262 2264 2263 1867 
1868 2265 2266 2267 2268 1871 1872 2269 2270 
2271 2272 1875 1876 2273 2274 2275 2276 2244 
1879 1880 2277 2278 2279 2280 1883 1888 2282 
2283 2285 2288 1884 2284 1887 1892 2286 2287 
2289 2292 1891 1896 2290 2293 2291 2296 1895 
1900 2294 2295 2297 2300 1903 1904 2298 2299 
2301 2302 2303 2304 1907 1908 2305 2306 2308 
2307 1911 1912 2309 2310 2312 1915 1916 2313 
2314 2315 2316 2281 1919 1920 2317 2318 2319 
2320 1923 1928 2322 2323 2325 2328 1924 2321 
2324 1932 1927 2326 2327 2329 2332 1931 1936 
2330 2331 2333 2336 1940 1935 2334 2335 2337 
2340 1939 1943 1944 2338 2339 2341 2342 2343 
2344 1947 1948 2345 2346 2347 2348 1952 2349 
2350 2351 2352 1955 1956 2353 2354 2356 2355 
1959 1960 2357 2358 2359 2360 1963 1964 1968 
2362 2363 2365 2368 2361 2364 2009 1607 1967 
1972 2366 2367 2369 2372 2007 1611 2011 2013 
1971 1976 2370 2371 2373 2376 2015 1975 1980 
2374 2375 2377 2380 1979 1983 1984 2378 2379 
2381 2382 2383 2384 2027 1987 1988 2385 2386 
2387 2388 2029 1991 1992 2389 2390 2391 2392 
1635 1995 1996 2393 2394 2395 2396 2037 1639 
1999 2000 2397 2398 2399 2400 2402 2408 2443 
2445 2441 2405 2404 2403 2406 2412 2447 2449 
2410 2416 2451 2453 2413 2414 2420 2455 2457 
2418 2422 2423 2424 2459 2461 2463 2426 2428 
2465 2467 2430 2432 2469 2471 2429 2431 2434 
2436 2473 2475 2433 2438 2440 2477 2479 2401 
2442 2448 2483 2485 2444 2481 2446 2452 2487 
2489 2450 2456 2491 2493 2454 2460 2495 2497 
2458 2462 2464 2499 2501 2503 2466 2468 2505 
2507 2470 2472 2509 2511 2474 2476 2513 2515 
2478 2480 2517 2519 2482 2488 2523 2525 2486 
2492 2527 2529 2490 2496 2531 2533 2494 2500 
2535 2537 2498 2502 2504 2539 2541 2543 2506 
2508 2545 2547 2510 2512 2549 2551 2514 2516 
2553 2555 2521 2484 2518 2520 2557 2559 2522 
2528 2563 2565 2561 2132 2526 2532 2567 2569 
2530 2536 2571 2573 2534 2540 2575 2577 2538 
2542 2544 2579 2581 2583 2546 2548 2585 2587 
2550 2552 2589 2591 2554 2556 2593 2595 2524 
2558 2560 2597 2599 2562 2568 2602 2603 2605 
2608 2601 2566 2572 2606 2607 2609 2570 2576 
2610 2611 2613 2616 2574 2580 2614 2615 2617 
2620 2578 2582 2584 2618 2619 2621 2622 2623 
2624 2586 2588 2625 2626 2627 2628 2590 2592 
2629 2630 2631 2632 2594 2596 2633 2634 2635 
2636 2604 2564 2598 2600 2637 2638 2639 2640 
2642 2643 2645 2648 2641 2612 2646 2647 2649 
2652 2650 2651 2653 2656 2654 2655 2657 2660 
2658 2659 2661 2662 2663 2664 2665 2666 2667 
2668 2669 2670 2671 2672 2673 2674 2675 2676 
2644 2677 2678 2679 2680 2682 2683 2685 2688 
2686 2687 2689 2692 2690 2691 2693 2696 2694 
2695 2697 2700 2698 2699 2701 2702 2703 2704 
2705 2706 2707 2708 2311 2709 2710 2711 2712 
2713 2714 2715 2716 2684 2681 2717 2718 2719 
2720 2722 2723 2725 2728 2724 2721 2726 2727 
2729 2732 2730 2731 2733 2736 2734 2735 2737 
2740 2738 2739 2741 2742 2743 2744 2745 2746 
2747 2748 2749 2750 2751 2752 2753 2754 2755 
2756 2757 2758 2759 2760 2762 2763 2765 2768 
2761 2764 2409 2407 2766 2767 2769 2772 2411 
2770 2771 2773 2776 2415 2417 2774 2775 2777 
2780 2419 2421 2778 2779 2781 2782 2783 2784 
2427 2425 2785 2786 2787 2788 2789 2790 2791 
2792 2435 2793 2794 2795 2796 2439 2437 2797 
2798 2799 2800 2802 2808 2841 2843 2845 2805 
2801 2806 2812 2847 2849 2807 2810 2816 2851 
2853 2813 2814 2820 2855 2857 2818 2822 2823 
2824 2859 2861 2863 2821 2825 2826 2828 2865 
2867 2830 2832 2869 2871 2834 2836 2873 2875 
2835 2804 2838 2840 2877 2879 2837 2842 2848 
2883 2885 2844 2881 2846 2852 2887 2889 2850 
2856 2891 2893 2854 2860 2895 2897 2858 2862 
2864 2899 2901 2903 2866 2868 2905 2907 2870 
2872 2909 2911 2874 2876 2913 2915 2878 2880 
2917 2919 2882 2888 2921 2923 2925 2884 2886 
2892 2927 2929 2890 2896 2931 2933 2894 2900 
2935 2937 2898 2902 2904 2939 2941 2943 2906 
2908 2945 2947 2910 2912 2949 2951 2914 2916 
2953 2955 2918 2920 2957 2959 2922 2928 2963 
2965 2924 2926 2932 2967 2969 2930 2936 2971 
2973 2934 2940 2975 2977 2938 2942 2944 2979 
2981 2983 2946 2948 2985 2987 2950 2952 2989 
2991 2954 2956 2993 2995 2961 2958 2960 2997 
2999 2962 2968 3002 3003 3005 3008 2966 2972 
3006 3007 3009 3012 2970 2976 3010 3011 3013 
3016 2974 2980 3015 3017 3020 3014 2978 2982 
2984 3018 3019 3021 3022 3023 3024 2986 2988 
3025 3027 3028 3026 2990 2992 3029 3030 3031 
3032 2994 2996 3033 3034 3035 3036 2964 3004 
3001 2998 3000 3037 3038 3039 3040 3042 3043 
3045 3048 3046 3047 3049 3052 3050 3051 3053 
3056 3054 3055 3057 3060 3058 3059 3061 3062 
3063 3064 3065 3066 3067 3068 3069 3070 3071 
3072 3073 3074 3075 3076 3041 3044 3077 3078 
3079 3080 3082 3083 3085 3088 3086 3087 3089 
3092 3090 3091 3093 3096 3094 3095 3097 3100 
3098 3099 3101 3102 3103 3104 3105 3106 3107 
3108 3109 3110 3111 3112 3113 3114 3115 3116 
3084 3081 3117 3118 3119 3120 3122 3123 3125 
3128 3124 3126 3127 3129 3132 3130 3131 3133 
3136 3134 3135 3137 3140 3138 3139 3141 3142 
3143 3144 3145 3146 3147 3148 3149 3150 3151 
3152 3153 3154 3155 3156 3121 3157 3158 3159 
3160 2803 3162 3163 3165 3168 3164 2809 3166 
3167 3169 3172 2811 3170 3171 3173 3176 2817 
2815 3174 3175 3177 3180 2819 3178 3179 3181 
3182 3183 3184 2827 3185 3186 3187 3188 2831 
2829 3189 3190 3191 3192 2833 3193 3194 3195 
3196 2839 3161 3197 3198 3199 3200 3202 3205 
3208 3243 3245 3241 3203 3206 3212 3247 3249 
3210 3216 3251 3253 3214 3220 3255 3257 3217 
3218 3222 3223 3224 3259 3261 3263 3219 3221 
3226 3227 3228 3265 3267 3230 3232 3269 3271 
3231 3234 3236 3273 3275 3233 3235 3204 3237 
3238 3240 3277 3279 3201 3242 3248 3283 3285 
3281 3246 3252 3287 3289 3250 3256 3291 3293 
3254 3260 3295 3297 3299 3258 3262 3264 3301 
3303 3266 3268 3305 3307 3270 3272 3309 3311 
3274 3276 3313 3315 3244 3278 3280 3317 3319 
3282 3288 3323 3325 3284 3321 3286 3292 3327 
3329 3290 3296 3331 3333 3294 3300 3335 3337 
3298 3302 3304 3339 3341 3343 3306 3308 3345 
3347 3310 3312 3349 3351 3314 3316 3353 3355 
3318 3320 3357 3359 3322 3328 3363 3365 3361 
3326 3332 3367 3369 3330 3336 3371 3373 3334 
3340 3375 3377 3338 3342 3344 3379 3381 3383 
3346 3348 3385 3387 3350 3352 3389 3391 3354 
3356 3393 3395 3324 3358 3360 3397 3399 3362 
3368 3402 3403 3405 3408 3364 3366 3372 3406 
3407 3409 3412 3370 3376 3410 3411 3413 3416 
3374 3380 3414 3415 3417 3420 3378 3382 3384 
3418 3419 3421 3422 3423 3424 3386 3388 3425 
3426 3427 3428 3390 3392 3429 3430 3431 3432 
3394 3396 3433 3434 3435 3436 3401 3404 3398 
3400 3437 3438 3439 3440 3442 3443 3445 3448 
3446 3447 3449 3452 3450 3451 3453 3456 3454 
3455 3457 3460 3458 3459 3461 3462 3463 3464 
3465 3466 3467 3468 3469 3470 3471 3472 3473 
3474 3475 3476 3441 3444 3477 3478 3479 3480 
3482 3483 3485 3488 3486 3487 3489 3492 3490 
3491 3493 3496 3494 3495 3497 3500 3498 3499 
3501 3502 3503 3504 3505 3506 3507 3508 3509 
3510 3511 3512 3513 3514 3515 3516 3481 3484 
3517 3518 3519 3520 3522 3523 3525 3528 3521 
3524 3526 3527 3529 3532 3530 3531 3533 3536 
3534 3535 3537 3540 3538 3539 3541 3542 3543 
3544 3545 3546 3547 3548 3549 3550 3551 3552 
3553 3554 3555 3556 3557 3558 3559 3560 3562 
3563 3565 3568 3561 3209 3207 3566 3567 3569 
3572 3211 3213 3570 3571 3573 3576 3215 3574 
3575 3577 3580 3578 3579 3581 3582 3583 3584 
3225 3585 3586 3587 3588 3229 3589 3590 3591 
3592 3593 3594 3595 3596 3564 3239 3597 3598 
3599 3600 2 3602 3608 3643 3645 3604 3605 
49 3606 3612 3647 3649 10 53 3610 3616 
3651 3653 13 3613 3611 14 3614 3615 3620 
3655 3657 22 61 18 3618 3622 3624 3659 
3661 3663 65 26 3625 3626 3628 3665 3667 
30 3630 3632 3669 3671 3631 34 3634 3636 
3673 3675 3635 38 1 3601 3641 3638 3640 
3677 3679 3642 3648 3683 3685 3644 46 89 
3646 3652 3687 3689 93 50 3650 3656 3691 
3693 3654 3660 3695 3697 101 3658 3662 3664 
3699 3701 3703 66 105 3666 3668 3705 3707 
109 70 3670 3672 3709 3711 3674 3676 3713 
3715 78 3681 3678 3680 3717 3719 3682 3688 
3723 3725 3684 3686 3692 3727 3729 90 3690 
3696 3731 3733 94 3694 3700 3735 3737 102 
98 3698 3702 3704 3739 3741 3743 3706 3708 
3745 3747 149 3710 3712 3749 3751 114 153 
3714 3716 3753 3755 157 3721 3718 3720 3757 
3759 122 3722 3728 3763 3765 3726 3732 3767 
3769 3730 3736 3771 3773 134 3734 3740 3775 
3777 138 142 181 3738 3742 3744 3779 3781 
3783 185 146 3746 3748 3785 3787 150 3750 
3752 3789 3791 193 3754 3756 3793 3795 3794 
197 158 3761 3724 3758 3760 3797 3799 3762 
3768 3802 3803 3805 3808 166 206 209 3772 
3766 3806 3807 3809 3812 170 3770 3776 3810 
3811 3813 3816 174 217 214 3774 3780 3815 
3817 3820 3814 218 221 178 3778 3782 3784 
3818 3819 3821 3822 3823 3824 186 226 3786 
3788 3825 3826 3827 3828 190 3790 3792 3829 
3830 3831 3832 194 233 3796 3833 3834 3835 
3836 237 3804 3764 3801 3798 3800 3837 3838 
3839 3840 242 3842 3843 3845 3848 246 249 
3846 3847 3849 3852 3850 3851 3853 3856 254 
257 3854 3855 3857 3860 258 3859 3858 3861 
3862 3863 3864 266 265 3865 3866 3867 3868 
270 269 3869 3870 3871 3872 3873 3874 3875 
3876 241 3844 3841 3877 3878 3879 3880 285 
282 3882 3883 3885 3888 3884 289 286 3886 
3887 3889 3892 290 293 3890 3891 3893 3896 
294 297 3894 3895 3897 3900 301 3898 3899 
3901 3902 3903 3904 306 305 3905 3906 3907 
3908 310 309 3909 3910 3911 3912 314 3913 
3914 3915 3916 281 3881 317 3917 3918 3919 
3920 322 3922 3923 3925 3928 329 326 3926 
3927 3929 3932 330 333 3930 3931 3933 3936 
337 3934 3935 3937 3940 338 341 3938 3939 
3941 3942 3943 3944 345 346 3945 3946 3947 
3948 350 349 3949 3950 3951 3952 354 353 
3953 3954 3955 3956 321 3924 3921 3957 3958 
3959 3960 362 3603 3962 3963 3965 3968 369 
9 3609 366 3607 3966 3967 3969 3972 373 
3970 3971 3973 3976 374 3617 3974 3975 3977 
3980 3619 21 3623 3621 3978 3979 3981 3982 
3983 3984 3627 25 3985 3986 3987 3988 29 
3629 390 3989 3990 3991 3992 3633 33 3993 
3994 3995 3996 397 398 3639 3961 3964 3637 
3997 3998 3999 4000 
type 1 4000 int
1 1 1 1 1 1 1 1 1 
1 1 1 1 1 1 1 1 1 
1 1 1 1 1 1 1 1 1 
1 1 1 1 1 1 1 1 1 
1 1 1 1 1 1 1 1 1 
1 1 1 1 1 1 1 1 1 
1 1 1 1 1 1 1 1 1 
1 1 1 1 1 1 1 1 1 
1 1 1 1 1 1 1 1 1 
1 1 1 1 1 1 1 1 1 
1 1 1 1 1 1 1 1 1 
1 1 1 1 1 1 1 1 1 
1 1 1 1 1 1 1 1 1 
1 1 1 1 1 1 1 1 1 
1 1 1 1 1 1 1 1 1 
1 1 1 1 1 1 1 1 1 
1 1 1 1 1 1 1 1 1 
1 1 1 1 1 1 1 1 1 
1 1 1 1 1 1 1 1 1 
1 1 1 1 1 1 1 1 1 
1 1 1 1 1 1 1 1 1 
1 1 1 1 1 1 1 1 1 
1 1 1 1 1 1 1 1 1 
1 1 1 1 1 1 1 1 1 
1 1 1 1 1 1 1 1 1 
1 1 1 1 1 1 1 1 1 
1 1 1 1 1 1 1 1 1 
1 1 1 1 1 1 1 1 1 
1 1 1 1 1 1 1 1 1 
1 1 1 1 1 1 1 1 1 
1 1 1 1 1 1 1 1 1 