LAMMPS (5 May 2020)
OMP_NUM_THREADS environment is not set. Defaulting to 1 thread. (src/comm.cpp:94)
  using 1 OpenMP thread(s) per MPI task
#Heat transfer example

atom_style	granular
ERROR: Unrecognized atom style 'granular' (src/atom.cpp:764)
Last command: atom_style	granular
