# vtk DataFile Version 4.0
Generated by LIGGGHTS
ASCII
DATASET POLYDATA
POINTS 890 float
0.00188437 -0.0460569 0.00395054 -0.0191924 -0.0418319 0.00393845 -0.0116726 -0.044517 0.00393819 
0.0107924 -0.0447573 0.00394128 0.019494 -0.0417428 0.00393535 -0.0261504 -0.0379385 0.0039521 
-0.0131145 -0.036672 0.00391749 -0.00360036 -0.0390765 0.00389564 0.00430567 -0.0385625 0.00392267 
0.0120529 -0.0369054 0.0039467 0.0263828 -0.0376845 0.003972 -0.0322466 -0.0328588 0.00395278 
-0.0200589 -0.0329056 0.00391047 -0.00683867 -0.0317756 0.00396875 0.00671419 -0.0310281 0.00395974 
0.0193217 -0.0338236 0.00389701 0.032524 -0.0325486 0.00393385 -0.0337912 -0.0250737 0.00392421 
-0.0259001 -0.0275006 0.00391759 -0.0134072 -0.027272 0.00390538 -0.000941663 -0.0264139 0.00383004 
0.0140429 -0.0278611 0.00395745 0.0376924 -0.0265014 0.00390938 -0.0408056 -0.0213492 0.00390574 
-0.020137 -0.0219965 0.00397348 -0.00772417 -0.0217254 0.00389979 0.00628153 -0.0231438 0.00394023 
0.0222471 -0.0230913 0.00389998 0.0300902 -0.0242715 0.00390167 -0.0278333 -0.0198021 0.00392424 
-0.0140311 -0.0168773 0.00397147 -0.000196146 -0.0185017 0.00395113 0.00708165 -0.015299 0.00394564 
0.0144178 -0.0188087 0.0039815 0.0282096 -0.0166079 0.00488805 0.0358081 -0.018777 0.00392224 
0.0432122 -0.0158408 0.00397487 -0.0449723 -0.0100111 0.00396438 -0.038066 -0.0138859 0.00389257 
-0.0302613 -0.0122219 0.00397037 -0.0220927 -0.0142631 0.00396877 -0.00536128 -0.0124633 0.00392842 
0.0135185 -0.010706 0.00386518 0.0207936 -0.0139106 0.0038939 0.0349867 -0.0109197 0.00397338 
-0.0236645 -0.00646035 0.00389363 -0.0145225 -0.00893729 0.00390785 0.00192841 -0.00924037 0.0039338 
0.0199197 -0.00599971 0.00394274 0.0273551 -0.00875575 0.00393379 0.0453013 -0.00813894 0.00390892 
-0.0393007 -0.0044485 0.00394871 -0.0313187 -0.00432676 0.00394644 -0.017641 -0.0012623 0.0039377 
-0.00871123 -0.00356571 0.00396151 -0.00162199 -2.2019e-05 0.00392046 0.00826889 -0.00369311 0.00389354 
0.0282257 -0.000853595 0.00392121 0.0385634 -0.00387475 0.0039072 -0.0460582 0.00160275 0.00386375 
-0.0316328 0.0035994 0.00395496 -0.0237059 0.0046581 0.00395301 -0.00825612 0.00439925 0.00393937 
0.00572239 0.00383667 0.00395239 0.0218924 0.00393239 0.00391847 0.0459969 0.00117599 0.00398177 
-0.0450388 0.00946536 0.00391624 -0.0370598 0.00985337 0.00393024 -0.0159344 0.00651467 0.00397425 
-0.00109933 0.00789864 0.00390612 0.0128217 0.00760983 0.00389885 0.0293493 0.00705637 0.00390859 
0.0387962 0.00662538 0.00394797 -0.0291895 0.0111535 0.00394721 -0.0213174 0.0123799 0.00392451 
-0.0102255 0.0120985 0.00387441 0.00607569 0.0118041 0.00394023 0.0197453 0.0115639 0.00392508 
0.0270951 0.0146679 0.00394627 0.034988 0.0136398 0.00389996 0.0443576 0.0123341 0.00393341 
-0.0427518 0.0170807 0.00394173 -0.034803 0.0174344 0.00393806 -0.0262879 0.0185734 0.0039104 
-0.015597 0.0179519 0.00397348 -0.00672773 0.01923 0.0039122 0.00547142 0.019763 0.00392073 
0.0129854 0.0157994 0.00388827 0.020747 0.01947 0.00392468 0.0415713 0.0197597 0.00392909 
-0.0390616 0.0243004 0.00397448 -0.0204001 0.0242872 0.00393573 -0.000875423 0.0246781 0.00398104 
0.0284021 0.0224848 0.00392627 -0.0264445 0.0294761 0.00389518 -0.0132287 0.0277573 0.00390603 
0.00806399 0.0272702 0.00393894 0.0161173 0.0264417 0.00391738 0.0250884 0.0296766 0.00387383 
0.0375584 0.0266098 0.00392615 -0.034327 0.0307367 0.00391928 -0.0192716 0.032874 0.00387158 
-0.00600318 0.0310234 0.00391002 0.00235687 0.0328328 0.00394463 0.0105434 0.0348342 0.00396904 
0.0184537 0.0340323 0.00398449 0.0324439 0.0326747 0.00396312 -0.0267956 0.037427 0.00398195 
-0.0118845 0.0363672 0.00395652 -0.00339653 0.0385315 0.00389175 0.0263089 0.0377438 0.00391391 
-0.0199373 0.041498 0.00395094 -0.0124687 0.044311 0.00397305 0.00484424 0.0403806 0.00392151 
0.0115408 0.0445896 0.00390842 0.019057 0.0419335 0.00396045 -0.000695983 0.0460536 0.00394929 
-0.00494139 -0.0457998 0.00796377 -0.00864424 -0.039057 0.00995542 -1.40838e-05 -0.0331359 0.0078341 
-0.0189259 -0.0275465 0.00957013 -0.00591127 -0.02654 0.00993318 0.0253641 -0.0298196 0.00689583 
0.011457 -0.0233018 0.00993549 0.0406672 -0.0216946 0.00944458 -0.0430366 -0.0163417 0.00961119 
-0.0341001 -0.0187083 0.00872061 -0.0352237 -0.0087864 0.00922153 -0.0195822 -0.0095354 0.00992548 
-0.00319552 -0.00615277 0.00913619 0.00782881 -0.00946677 0.00925247 -0.0458525 -0.00412274 0.00924392 
-0.0253288 -0.000958311 0.00936607 0.003371 -0.00170049 0.00979653 -0.0389382 0.00284753 0.00704312 
0.0150589 0.000129177 0.00525442 0.0401185 0.00125306 0.00966502 0.0455611 0.00696532 0.00962391 
-0.015724 0.0122184 0.00954364 -0.00565194 0.0101275 0.00997441 -0.0212203 0.0179176 0.00995335 
-0.000472534 0.015267 0.00674957 -0.0313414 0.0239672 0.00668637 -0.0153345 0.023178 0.00999295 
0.0118687 0.0218875 0.00883061 0.0348186 0.0204075 0.00810455 -0.00774981 0.0251745 0.00901778 
0.0297553 0.027509 0.00992795 -0.016983 0.0372733 0.00998585 -0.00633667 0.0437977 0.00904129 
-0.00887371 -0.0452445 0.0148505 0.00641443 -0.0456012 0.0105134 -0.0227424 -0.0400338 0.0108279 
-0.0154787 -0.0433241 0.0108057 0.000338318 -0.0404893 0.0106483 0.0145089 -0.0413061 0.0100826 
0.0079168 -0.0368994 0.0107653 0.0229764 -0.0398764 0.0108563 0.029664 -0.0352186 0.0108192 
-0.0336444 -0.0314559 0.0116494 -0.0251735 -0.0324956 0.0100124 -0.0185093 -0.0341202 0.0140704 
-0.0119252 -0.0318033 0.0102504 -0.00506254 -0.0332431 0.0140087 0.0149748 -0.0333054 0.0105033 
0.0222018 -0.0324852 0.0137356 -0.0384597 -0.0253069 0.0103496 0.00576492 -0.0292544 0.0116596 
0.0187639 -0.0263086 0.0102298 0.0282823 -0.0272647 0.0137684 0.0352894 -0.0295711 0.0108158 
-0.0294076 -0.0248448 0.010537 -0.0228572 -0.0227795 0.0144591 -0.0126869 -0.0225131 0.0102425 
0.00120804 -0.0228478 0.0105114 0.0328307 -0.0214855 0.0107832 -0.0265293 -0.0165895 0.0110377 
-0.0186539 -0.0173639 0.0104523 -0.00517276 -0.0175359 0.010083 0.0107318 -0.0159385 0.0128136 
0.020737 -0.0186067 0.0102416 0.0275595 -0.0161999 0.0135986 -0.0449472 -0.0101784 0.0141938 
-0.037846 -0.0135488 0.0149917 -0.00981227 -0.0104485 0.0101495 -0.00340593 -0.0115484 0.0149926 
0.00233028 -0.0149859 0.0106438 0.0231669 -0.0102703 0.0105219 0.0370554 -0.0147197 0.0106839 
0.0445057 -0.01194 0.0108169 -0.0274239 -0.00868499 0.0105282 0.0154742 -0.00851623 0.0111432 
0.0310433 -0.00954027 0.0109262 0.0384878 -0.00681992 0.0113404 -0.0395515 -0.00431905 0.014111 
-0.0331198 -0.000881054 0.0109099 -0.0141258 -0.00377581 0.0105962 0.0100509 -0.00335207 0.0137816 
0.0205465 -0.00181453 0.0106602 0.0326022 -0.00159525 0.0104636 0.0459018 -0.00405849 0.0106746 
-0.0392628 0.0035946 0.0149267 -0.0184937 0.00289422 0.0106802 -0.00736321 0.000406531 0.0107259 
0.0102953 0.0038329 0.0104484 0.0264681 0.0034857 0.0103673 -0.0457346 0.00547825 0.0107683 
-0.0315195 0.00739632 0.0109466 -0.0236867 0.0089271 0.0106702 -0.0118545 0.00640149 0.0132909 
0.00345708 0.00794565 0.0104252 0.0176992 0.00671544 0.0100895 0.033987 0.00620596 0.0102767 
-0.0441649 0.0132635 0.0108005 -0.0363232 0.013734 0.0108303 -0.00049023 0.0139736 0.01462 
0.010812 0.0117514 0.010336 0.0242705 0.0111552 0.0104718 0.0317548 0.0137406 0.0111413 
0.0394598 0.0120067 0.010217 -0.0285816 0.0151822 0.0107574 -0.00870246 0.0173633 0.0114008 
0.00574145 0.0177097 0.0115563 0.0176716 0.0157837 0.0102872 0.0258577 0.0189965 0.0106231 
0.0417702 0.0194568 0.0118482 -0.0410973 0.0207075 0.0108069 -0.0335942 0.0207132 0.0135136 
-0.00134509 0.0213532 0.0117314 0.019409 0.0235883 0.0105459 -0.0369659 0.0274952 0.0109957 
-0.0245501 0.0251791 0.010632 -0.00140985 0.0297074 0.0101858 0.00532594 0.0256855 0.0112446 
0.0123651 0.0297112 0.0101501 0.0374257 0.0269296 0.0118427 -0.0316676 0.033427 0.0108856 
-0.0237584 0.0331 0.010374 -0.0129726 0.0306075 0.0115847 0.0226339 0.031425 0.0111278 
-0.00682296 0.0355633 0.0104282 0.000873314 0.0387016 0.0105378 0.00874149 0.0375228 0.0112552 
0.0163984 0.0359538 0.0129236 0.0228828 0.0399583 0.0106878 0.0294797 0.0354094 0.0108269 
-0.0135909 0.0440492 0.0122213 0.0152524 0.0434752 0.0107859 -3.58889e-06 0.0460652 0.013326 
0.00750128 0.045396 0.0107281 0.000563819 -0.046093 0.0161967 -0.0227222 -0.0400558 0.0187803 
-0.0155416 -0.0433609 0.0187386 0.00687384 -0.0413945 0.0172502 0.014396 -0.0437705 0.0175948 
-0.0288774 -0.0358852 0.0161422 -0.0115521 -0.0367479 0.0169244 -0.00406245 -0.0399284 0.0181874 
0.00235701 -0.0350021 0.0160735 0.0159089 -0.0358776 0.0179858 0.0266773 -0.0376137 0.0177332 
0.0327626 -0.0323871 0.0178292 -0.037134 -0.0271986 0.0179716 -0.0286447 -0.0267494 0.0182342 
-0.0156563 -0.0262104 0.0166595 -0.00482215 -0.026205 0.0177562 0.00271496 -0.0278998 0.0195352 
0.0120211 -0.0289974 0.0165155 0.0386413 -0.0250083 0.0164254 -0.0412147 -0.0206119 0.016105 
-0.0332659 -0.0204123 0.0164116 0.00673357 -0.0219874 0.0161568 0.0145771 -0.0214554 0.0172613 
0.0223584 -0.0229191 0.0166904 -0.0178939 -0.0182246 0.0186421 -0.0109126 -0.0163077 0.015408 
-0.00143345 -0.0190617 0.0169253 0.0347956 -0.0181518 0.0176877 0.0425339 -0.0176398 0.0159598 
-0.0302223 -0.0126803 0.0168439 -0.0223422 -0.0118426 0.0169995 0.00497139 -0.0145336 0.0181442 
0.0177716 -0.0142352 0.0161106 0.0448166 -0.0105475 0.0186671 -0.0147927 -0.00939034 0.0162212 
0.00334518 -0.00732644 0.0153903 0.0114372 -0.00988042 0.018122 0.0233849 -0.00889202 0.018327 
0.0330874 -0.00539883 0.017394 -0.046065 -0.000297372 0.016227 -0.0287681 -0.00398801 0.0167765 
-0.0209249 -0.00389284 0.0153451 -0.0130104 -0.00174881 0.0182109 -0.00301972 -0.00281837 0.0165157 
0.0170931 -0.00409891 0.0174464 0.026118 -0.00171587 0.0163239 0.0460219 -0.00272618 0.0184983 
-0.0265129 0.00357016 0.0158161 -0.0194277 0.0028175 0.019324 -0.0025805 0.00499082 0.0151579 
0.00494343 0.00265098 0.0162132 0.0122252 0.00188076 0.0193066 0.0199657 0.00330419 0.016887 
0.0387792 0.000147407 0.017361 -0.0450428 0.00937869 0.0176833 -0.0331729 0.00657865 0.0189431 
[...]
POINT_DATA 890
FIELD FieldData 9
id 1 890 int
328 395 635 139 347 203 196 236 800 
586 677 582 256 398 603 449 396 177 
871 806 739 153 532 627 810 477 860 
28 388 471 90 611 521 602 102 671 
169 740 351 190 666 39 145 249 120 
876 755 634 176 134 46 275 731 62 
11 830 119 833 385 329 189 702 199 
506 483 873 675 307 82 197 319 738 
538 654 657 473 159 274 450 327 174 
2 10 276 575 787 426 534 14 858 
138 180 432 531 418 224 278 724 842 
430 662 462 35 469 408 298 326 53 
89 349 706 4 742 641 416 546 859 
650 101 883 699 85 216 198 601 192 
874 323 759 333 696 230 520 625 401 
265 244 461 227 96 804 698 67 116 
118 390 594 440 680 242 886 37 596 
231 376 179 613 17 65 598 713 309 
571 80 162 284 97 52 692 429 206 
111 59 630 66 200 86 142 664 649 
779 667 674 113 33 55 413 879 341 
884 411 553 862 535 498 682 563 105 
259 44 257 422 250 659 530 570 849 
50 708 182 482 827 217 632 175 766 
363 195 809 140 653 317 816 228 689 
672 508 16 854 316 836 19 150 478 
767 748 222 869 123 405 795 41 258 
38 737 289 338 207 687 733 392 608 
851 690 409 776 467 778 358 218 167 
526 794 184 618 780 310 544 799 523 
622 888 758 221 268 393 70 103 386 
76 488 354 515 668 636 855 322 252 
215 141 599 348 253 588 366 606 676 
295 5 239 367 514 568 628 121 18 
350 679 541 821 262 383 797 619 375 
694 64 808 273 313 77 171 765 460 
229 796 715 431 47 503 791 269 771 
489 501 438 751 364 7 377 314 63 
726 707 623 399 420 519 365 652 545 
812 382 880 743 337 149 504 673 126 
110 243 56 612 318 824 373 479 499 
640 404 864 108 286 782 517 336 240 
474 370 651 343 848 875 237 30 480 
729 21 557 414 576 339 94 133 99 
406 645 585 292 223 811 464 448 749 
847 87 695 465 397 251 104 505 456 
655 315 311 609 22 308 92 558 281 
29 331 446 378 468 746 166 129 455 
380 574 578 547 254 727 844 597 114 
428 642 881 266 73 444 725 248 125 
723 42 870 419 802 722 669 290 210 
638 721 435 75 187 486 320 495 688 
451 291 417 744 700 701 271 803 424 
757 280 332 829 801 616 840 736 160 
507 878 407 205 882 605 433 297 445 
164 368 260 374 246 127 720 683 132 
12 463 852 107 510 850 188 761 522 
660 161 136 300 219 579 115 122 34 
793 615 572 648 334 381 705 714 285 
128 775 421 58 837 494 610 226 54 
528 362 559 61 691 518 734 148 845 
154 524 91 208 458 71 584 484 403 
466 556 26 670 491 36 457 352 437 
637 785 157 369 345 856 772 57 173 
550 529 83 238 43 853 402 644 817 
728 452 213 581 647 68 40 423 885 
475 788 838 335 857 537 209 562 25 
1 212 798 288 470 681 72 360 88 
357 770 502 106 711 747 492 626 600 
6 820 124 569 69 865 784 774 454 
325 781 513 344 321 867 294 389 709 
684 819 245 685 567 697 191 283 211 
135 777 735 591 202 573 84 604 866 
704 45 193 490 117 359 527 493 340 
394 263 371 78 346 225 629 552 763 
178 826 3 877 439 589 220 8 272 
306 442 583 20 436 487 590 686 789 
9 658 481 716 756 270 564 863 807 
633 186 23 15 305 261 264 112 718 
384 233 561 143 754 790 303 500 304 
764 631 768 425 769 163 98 663 890 
509 516 255 678 580 355 302 361 282 
427 533 646 342 185 434 732 485 593 
301 511 496 717 412 656 183 27 146 
100 889 170 745 577 51 24 312 710 
786 815 296 158 277 614 299 551 201 
643 540 165 555 621 752 130 549 400 
441 93 81 247 624 512 324 560 459 
773 156 168 565 805 109 172 443 476 
753 356 887 372 241 841 730 95 415 
147 822 391 144 330 548 204 762 79 
49 279 410 194 665 741 543 131 818 
453 542 839 750 587 813 719 155 353 
48 831 137 783 846 828 214 232 287 
872 843 703 235 539 639 592 234 832 
595 661 712 814 497 447 60 834 151 
868 181 792 536 760 387 566 607 525 
617 823 152 693 620 861 32 825 554 
472 13 379 267 31 74 293 835 
type 1 890 int
1 1 1 1 1 1 1 1 1 
1 1 1 1 1 1 1 1 1 
1 1 1 1 1 1 1 1 1 
1 1 1 1 1 1 1 1 1 
1 1 1 1 1 1 1 1 1 
1 1 1 1 1 1 1 1 1 
1 1 1 1 1 1 1 1 1 
1 1 1 1 1 1 1 1 1 
1 1 1 1 1 1 1 1 1 
1 1 1 1 1 1 1 1 1 
1 1 1 1 1 1 1 1 1 
1 1 1 1 1 1 1 1 1 
1 1 1 1 1 1 1 1 1 
1 1 1 1 1 1 1 1 1 
1 1 1 1 1 1 1 1 1 
1 1 1 1 1 1 1 1 1 
1 1 1 1 1 1 1 1 1 
1 1 1 1 1 1 1 1 1 
1 1 1 1 1 1 1 1 1 
1 1 1 1 1 1 1 1 1 
1 1 1 1 1 1 1 1 1 
1 1 1 1 1 1 1 1 1 
1 1 1 1 1 1 1 1 1 
1 1 1 1 1 1 1 1 1 
1 1 1 1 1 1 1 1 1 
1 1 1 1 1 1 1 1 1 
1 1 1 1 1 1 1 1 1 
1 1 1 1 1 1 1 1 1 
1 1 1 1 1 1 1 1 1 
1 1 1 1 1 1 1 1 1 
1 1 1 1 1 1 1 1 1 
1 1 1 1 1 1 1 1 1 
1 1 1 1 1 1 1 1 1 
1 1 1 1 1 1 1 1 1 
1 1 1 1 1 1 1 1 1 
1 1 1 1 1 1 1 1 1 
1 1 1 1 1 1 1 1 1 
1 1 1 1 1 1 1 1 1 
1 1 1 1 1 1 1 1 1 
1 1 1 1 1 1 1 1 1 
1 1 1 1 1 1 1 1 1 
1 1 1 1 1 1 1 1 1 
1 1 1 1 1 1 1 1 1 
1 1 1 1 1 1 1 1 1 
1 1 1 1 1 1 1 1 1 
1 1 1 1 1 1 1 1 1 
1 1 1 1 1 1 1 1 1 
1 1 1 1 1 1 1 1 1 
1 1 1 1 1 1 1 1 1 
1 1 1 1 1 1 1 1 1 
1 1 1 1 1 1 1 1 1 
1 1 1 1 1 1 1 1 1 
1 1 1 1 1 1 1 1 1 
1 1 1 1 1 1 1 1 1 
1 1 1 1 1 1 1 1 1 
1 1 1 1 1 1 1 1 1 
1 1 1 1 1 1 1 1 1 
1 1 1 1 1 1 1 1 1 
1 1 1 1 1 1 1 1 1 
1 1 1 1 1 1 1 1 1 
1 1 1 1 1 1 1 1 1 
1 1 1 1 1 1 1 1 1 
1 1 1 1 1 1 1 1 1 
1 1 1 1 1 1 1 1 1 
1 1 1 1 1 1 1 1 1 
1 1 1 1 1 1 1 1 1 
1 1 1 1 1 1 1 1 1 
1 1 1 1 1 1 1 1 1 
1 1 1 1 1 1 1 1 1 
1 1 1 1 1 1 1 1 1 
1 1 1 1 1 1 1 1 1 
1 1 1 1 1 1 1 1 1 
1 1 1 1 1 1 1 1 1 
1 1 1 1 1 1 1 1 1 
1 1 1 1 1 1 1 1 1 
1 1 1 1 1 1 1 1 1 
1 1 1 1 1 1 1 1 1 
1 1 1 1 1 1 1 1 1 
1 1 1 1 1 1 1 1 1 
1 1 1 1 1 1 1 1 1 
1 1 1 1 1 1 1 1 1 
1 1 1 1 1 1 1 1 1 
1 1 1 1 1 1 1 1 1 
1 1 1 1 1 1 1 1 1 
1 1 1 1 1 1 1 1 1 
1 1 1 1 1 1 1 1 1 
1 1 1 1 1 1 1 1 1 
1 1 1 1 1 1 1 1 1 
1 1 1 1 1 1 1 1 1 
1 1 1 1 1 1 1 1 1 
1 1 1 1 1 1 1 1 1 
1 1 1 1 1 1 1 1 1 
1 1 1 1 1 1 1 1 1 
1 1 1 1 1 1 1 1 1 
1 1 1 1 1 1 1 1 1 
1 1 1 1 1 1 1 1 1 
1 1 1 1 1 1 1 1 1 
1 1 1 1 1 1 1 1 1 
1 1 1 1 1 1 1 1 
i 3 890 int
0 0 0 0 0 0 0 0 0 
0 0 0 0 0 0 0 0 0 
0 0 0 0 0 0 0 0 0 
0 0 0 0 0 0 0 0 0 
0 0 0 0 0 0 0 0 0 
0 0 0 0 0 0 0 0 0 
0 0 0 0 0 0 0 0 0 
0 0 0 0 0 0 0 0 0 
0 0 0 0 0 0 0 0 0 
0 0 0 0 0 0 0 0 0 
0 0 0 0 0 0 0 0 0 
0 0 0 0 0 0 0 0 0 
0 0 0 0 0 0 0 0 0 
0 0 0 0 0 0 0 0 0 
0 0 0 0 0 0 0 0 0 
0 0 0 0 0 0 0 0 0 
0 0 0 0 0 0 0 0 0 
0 0 0 0 0 0 0 0 0 
0 0 0 0 0 0 0 0 0 
0 0 0 0 0 0 0 0 0 
0 0 0 0 0 0 0 0 0 
0 0 0 0 0 0 0 0 0 
0 0 0 0 0 0 0 0 0 
0 0 0 0 0 0 0 0 0 
0 0 0 0 0 0 0 0 0 
0 0 0 0 0 0 0 0 0 
0 0 0 0 0 0 0 0 0 
0 0 0 0 0 0 0 0 0 
0 0 0 0 0 0 0 0 0 
0 0 0 0 0 0 0 0 0 
0 0 0 0 0 0 0 0 0 
0 0 0 0 0 0 0 0 0 
0 0 0 0 0 0 0 0 0 
0 0 0 0 0 0 0 0 0 
0 0 0 0 0 0 0 0 0 
0 0 0 0 0 0 0 0 0 
0 0 0 0 0 0 0 0 0 
0 0 0 0 0 0 0 0 0 
0 0 0 0 0 0 0 0 0 
0 0 0 0 0 0 0 0 0 
0 0 0 0 0 0 0 0 0 
0 0 0 0 0 0 0 0 0 
0 0 0 0 0 0 0 0 0 
0 0 0 0 0 0 0 0 0 
0 0 0 0 0 0 0 0 0 
0 0 0 0 0 0 0 0 0 
0 0 0 0 0 0 0 0 0 
0 0 0 0 0 0 0 0 0 
0 0 0 0 0 0 0 0 0 
0 0 0 0 0 0 0 0 0 
0 0 0 0 0 0 0 0 0 
0 0 0 0 0 0 0 0 0 
0 0 0 0 0 0 0 0 0 
0 0 0 0 0 0 0 0 0 
0 0 0 0 0 0 0 0 0 
0 0 0 0 0 0 0 0 0 
0 0 0 0 0 0 0 0 0 
0 0 0 0 0 0 0 0 0 
0 0 0 0 0 0 0 0 0 
0 0 0 0 0 0 0 0 0 
0 0 0 0 0 0 0 0 0 
0 0 0 0 0 0 0 0 0 
0 0 0 0 0 0 0 0 0 
0 0 0 0 0 0 0 0 0 
0 0 0 0 0 0 0 0 0 
0 0 0 0 0 0 0 0 0 
0 0 0 0 0 0 0 0 0 
0 0 0 0 0 0 0 0 0 
0 0 0 0 0 0 0 0 0 
0 0 0 0 0 0 0 0 0 
0 0 0 0 0 0 0 0 0 
0 0 0 0 0 0 0 0 0 
0 0 0 0 0 0 0 0 0 
0 0 0 0 0 0 0 0 0 
0 0 0 0 0 0 0 0 0 
0 0 0 0 0 0 0 0 0 
0 0 0 0 0 0 0 0 0 
0 0 0 0 0 0 0 0 0 
0 0 0 0 0 0 0 0 0 
0 0 0 0 0 0 0 0 0 
0 0 0 0 0 0 0 0 0 
0 0 0 0 0 0 0 0 0 
0 0 0 0 0 0 0 0 0 
0 0 0 0 0 0 0 0 0 
0 0 0 0 0 0 0 0 0 
0 0 0 0 0 0 0 0 0 
0 0 0 0 0 0 0 0 0 
0 0 0 0 0 0 0 0 0 
0 0 0 0 0 0 0 0 0 
0 0 0 0 0 0 0 0 0 
0 0 0 0 0 0 0 0 0 
0 0 0 0 0 0 0 0 0 
0 0 0 0 0 0 0 0 0 
0 0 0 0 0 0 0 0 0 
0 0 0 0 0 0 0 0 0 
0 0 0 0 0 0 0 0 0 
0 0 0 0 0 0 0 0 0 
0 0 0 0 0 0 0 0 0 
0 0 0 0 0 0 0 0 0 
0 0 0 0 0 0 0 0 0 
0 0 0 0 0 0 0 0 0 
0 0 0 0 0 0 0 0 0 
0 0 0 0 0 0 0 0 0 
0 0 0 0 0 0 0 0 0 
0 0 0 0 0 0 0 0 0 
0 0 0 0 0 0 0 0 0 
0 0 0 0 0 0 0 0 0 
0 0 0 0 0 0 0 0 0 
0 0 0 0 0 0 0 0 0 
0 0 0 0 0 0 0 0 0 
0 0 0 0 0 0 0 0 0 
0 0 0 0 0 0 0 0 0 
0 0 0 0 0 0 0 0 0 
0 0 0 0 0 0 0 0 0 
0 0 0 0 0 0 0 0 0 
0 0 0 0 0 0 0 0 0 
0 0 0 0 0 0 0 0 0 
0 0 0 0 0 0 0 0 0 
0 0 0 0 0 0 0 0 0 
0 0 0 0 0 0 0 0 0 
0 0 0 0 0 0 0 0 0 
0 0 0 0 0 0 0 0 0 
0 0 0 0 0 0 0 0 0 
0 0 0 0 0 0 0 0 0 
0 0 0 0 0 0 0 0 0 
0 0 0 0 0 0 0 0 0 
0 0 0 0 0 0 0 0 0 
0 0 0 0 0 0 0 0 0 
0 0 0 0 0 0 0 0 0 
0 0 0 0 0 0 0 0 0 
0 0 0 0 0 0 0 0 0 
0 0 0 0 0 0 0 0 0 
0 0 0 0 0 0 0 0 0 
0 0 0 0 0 0 0 0 0 
0 0 0 0 0 0 0 0 0 
0 0 0 0 0 0 0 0 0 
0 0 0 0 0 0 0 0 0 
0 0 0 0 0 0 0 0 0 
0 0 0 0 0 0 0 0 0 
0 0 0 0 0 0 0 0 0 
0 0 0 0 0 0 0 0 0 
0 0 0 0 0 0 0 0 0 
0 0 0 0 0 0 0 0 0 
0 0 0 0 0 0 0 0 0 
0 0 0 0 0 0 0 0 0 
0 0 0 0 0 0 0 0 0 
0 0 0 0 0 0 0 0 0 
0 0 0 0 0 0 0 0 0 
0 0 0 0 0 0 0 0 0 
0 0 0 0 0 0 0 0 0 
0 0 0 0 0 0 0 0 0 
0 0 0 0 0 0 0 0 0 
0 0 0 0 0 0 0 0 0 
0 0 0 0 0 0 0 0 0 
0 0 0 0 0 0 0 0 0 
0 0 0 0 0 0 0 0 0 
0 0 0 0 0 0 0 0 0 
0 0 0 0 0 0 0 0 0 
0 0 0 0 0 0 0 0 0 
0 0 0 0 0 0 0 0 0 
0 0 0 0 0 0 0 0 0 
0 0 0 0 0 0 0 0 0 
0 0 0 0 0 0 0 0 0 
0 0 0 0 0 0 0 0 0 
0 0 0 0 0 0 0 0 0 
0 0 0 0 0 0 0 0 0 
0 0 0 0 0 0 0 0 0 
0 0 0 0 0 0 0 0 0 
0 0 0 0 0 0 0 0 0 
0 0 0 0 0 0 0 0 0 
0 0 0 0 0 0 0 0 0 
0 0 0 0 0 0 0 0 0 
0 0 0 0 0 0 0 0 0 
0 0 0 0 0 0 0 0 0 
0 0 0 0 0 0 0 0 0 
0 0 0 0 0 0 0 0 0 
0 0 0 0 0 0 0 0 0 
0 0 0 0 0 0 0 0 0 
0 0 0 0 0 0 0 0 0 
0 0 0 0 0 0 0 0 0 
0 0 0 0 0 0 0 0 0 
0 0 0 0 0 0 0 0 0 
0 0 0 0 0 0 0 0 0 
0 0 0 0 0 0 0 0 0 
0 0 0 0 0 0 0 0 0 
0 0 0 0 0 0 0 0 0 
0 0 0 0 0 0 0 0 0 
0 0 0 0 0 0 0 0 0 
0 0 0 0 0 0 0 0 0 
0 0 0 0 0 0 0 0 0 
0 0 0 0 0 0 0 0 0 
0 0 0 0 0 0 0 0 0 
0 0 0 0 0 0 0 0 0 
0 0 0 0 0 0 0 0 0 
0 0 0 0 0 0 0 0 0 
0 0 0 0 0 0 0 0 0 
0 0 0 0 0 0 0 0 0 
0 0 0 0 0 0 0 0 0 
0 0 0 0 0 0 0 0 0 
0 0 0 0 0 0 0 0 0 
0 0 0 0 0 0 0 0 0 
0 0 0 0 0 0 0 0 0 
0 0 0 0 0 0 0 0 0 
0 0 0 0 0 0 0 0 0 
0 0 0 0 0 0 0 0 0 
0 0 0 0 0 0 0 0 0 
0 0 0 0 0 0 0 0 0 
0 0 0 0 0 0 0 0 0 
0 0 0 0 0 0 0 0 0 
0 0 0 0 0 0 0 0 0 
0 0 0 0 0 0 0 0 0 
0 0 0 0 0 0 0 0 0 
0 0 0 0 0 0 0 0 0 
0 0 0 0 0 0 0 0 0 
0 0 0 0 0 0 0 0 0 
0 0 0 0 0 0 0 0 0 
0 0 0 0 0 0 0 0 0 
0 0 0 0 0 0 0 0 0 
0 0 0 0 0 0 0 0 0 
0 0 0 0 0 0 0 0 0 
0 0 0 0 0 0 0 0 0 
0 0 0 0 0 0 0 0 0 
0 0 0 0 0 0 0 0 0 
0 0 0 0 0 0 0 0 0 
0 0 0 0 0 0 0 0 0 
0 0 0 0 0 0 0 0 0 
0 0 0 0 0 0 0 0 0 
0 0 0 0 0 0 0 0 0 
0 0 0 0 0 0 0 0 0 
0 0 0 0 0 0 0 0 0 
0 0 0 0 0 0 0 0 0 
0 0 0 0 0 0 0 0 0 
0 0 0 0 0 0 0 0 0 
0 0 0 0 0 0 0 0 0 
0 0 0 0 0 0 0 0 0 
0 0 0 0 0 0 0 0 0 
0 0 0 0 0 0 0 0 0 
0 0 0 0 0 0 0 0 0 
0 0 0 0 0 0 0 0 0 
0 0 0 0 0 0 0 0 0 
0 0 0 0 0 0 0 0 0 
0 0 0 0 0 0 0 0 0 
0 0 0 0 0 0 0 0 0 
0 0 0 0 0 0 0 0 0 
0 0 0 0 0 0 0 0 0 
0 0 0 0 0 0 0 0 0 
0 0 0 0 0 0 0 0 0 
0 0 0 0 0 0 0 0 0 
0 0 0 0 0 0 0 0 0 
0 0 0 0 0 0 0 0 0 
0 0 0 0 0 0 0 0 0 
0 0 0 0 0 0 0 0 0 
0 0 0 0 0 0 0 0 0 
0 0 0 0 0 0 0 0 0 
0 0 0 0 0 0 0 0 0 
0 0 0 0 0 0 0 0 0 
0 0 0 0 0 0 0 0 0 
0 0 0 0 0 0 0 0 0 
0 0 0 0 0 0 0 0 0 
0 0 0 0 0 0 0 0 0 
0 0 0 0 0 0 0 0 0 
0 0 0 0 0 0 0 0 0 
0 0 0 0 0 0 0 0 0 
0 0 0 0 0 0 0 0 0 
0 0 0 0 0 0 0 0 0 
0 0 0 0 0 0 0 0 0 
0 0 0 0 0 0 0 0 0 
0 0 0 0 0 0 0 0 0 
0 0 0 0 0 0 0 0 0 
0 0 0 0 0 0 0 0 0 
0 0 0 0 0 0 0 0 0 
0 0 0 0 0 0 0 0 0 
0 0 0 0 0 0 0 0 0 
0 0 0 0 0 0 0 0 0 
0 0 0 0 0 0 0 0 0 
0 0 0 0 0 0 0 0 0 
0 0 0 0 0 0 0 0 0 
0 0 0 0 0 0 0 0 0 
0 0 0 0 0 0 0 0 0 
0 0 0 0 0 0 0 0 0 
0 0 0 0 0 0 0 0 0 
0 0 0 0 0 0 0 0 0 
0 0 0 0 0 0 0 0 0 
0 0 0 0 0 0 0 0 0 
0 0 0 0 0 0 0 0 0 
0 0 0 0 0 0 0 0 0 
0 0 0 0 0 0 0 0 0 
0 0 0 0 0 0 0 0 0 
0 0 0 0 0 0 0 0 0 
0 0 0 0 0 0 0 0 0 
0 0 0 0 0 0 0 0 0 
0 0 0 0 0 0 0 0 0 
0 0 0 0 0 0 0 0 0 
0 0 0 0 0 0 0 0 0 
0 0 0 0 0 0 0 0 0 
0 0 0 0 0 0 0 0 0 
0 0 0 0 0 0 
v 3 890 double
0.000134397 0.000278682 0.000266792 2.61466e-05 -0.000135381 4.85882e-05 -7.16847e-05 0.00013923 5.49146e-05 
0.000296529 0.00018106 3.98272e-05 0.000334955 0.000252511 -0.000102794 1.64197e-05 -0.000107433 -7.60053e-05 
0.000374472 0.000349132 0.000381205 0.000423044 0.000315221 0.000320687 0.000186481 0.000469733 0.000109804 
0.000139136 0.000278018 5.77909e-05 0.000873523 6.25588e-05 -0.000262482 -9.77508e-05 -0.000132954 -0.000147201 
-2.88866e-05 -0.000136728 -1.83829e-05 0.000248954 0.000275831 0.000317761 0.000292825 0.000670454 -3.60672e-05 
0.000118502 0.000274966 -0.000214666 0.000314687 2.33367e-05 -2.67783e-05 -7.18924e-05 -0.000156741 0.000110402 
-0.000343945 -0.000364039 -1.67074e-05 0.000163265 -0.000353648 0.000400159 0.000161462 0.000494444 0.000548848 
0.000619323 0.000972853 0.000367987 -7.28534e-05 -0.000138 -0.000153619 4.42062e-05 -0.000117878 0.000193052 
0.000267098 -0.000515143 0.000155419 0.000415282 -0.000195589 0.000535248 2.53441e-05 0.000559914 0.000264126 
-0.000289847 -0.00117138 -0.000626805 -5.03117e-05 -3.19404e-05 -0.00030215 7.80481e-05 -0.000166813 1.63282e-05 
0.000123607 -0.000375469 9.12267e-05 0.000116638 0.000552105 -0.000123542 -0.000494195 0.000431536 -0.000193993 
-0.000226665 -0.000754498 9.17789e-06 -0.000355633 -0.000616099 0.000277276 0.000244636 -0.000310506 -0.000216333 
-3.41448e-05 0.000443953 5.47536e-05 -2.35905e-05 -0.00016918 0.000123594 7.56506e-05 7.73013e-05 0.000350098 
-0.000389358 -0.000398526 0.000381218 0.000123629 -0.000297255 -0.000119583 0.00563966 0.00491982 0.000447105 
0.000117338 -0.00103346 -0.000921458 -0.000643671 -0.000665206 -0.000854458 -0.000881251 -0.000588911 -0.00035302 
-0.000453632 -0.00031312 0.000154119 0.000138478 -0.00082364 8.0426e-05 0.00554731 0.00594351 2.41958e-05 
-0.000364615 0.000519364 -0.000637297 -0.000697376 -0.000508033 -0.00105696 -0.000111037 0.000312866 0.000106415 
1.62283e-05 -0.000221575 0.000304245 -0.000316031 -0.00021801 0.000319655 -0.000747904 -0.000280002 -6.97404e-05 
-0.000148499 -0.000397005 -0.0001811 -4.17772e-07 -0.000168457 -0.000169715 -0.000507826 -0.0016415 -3.34873e-05 
-8.47487e-05 -0.000193893 8.23439e-05 -0.00108854 -1.20628e-05 9.98069e-05 0.000112512 -0.000176733 0.000169928 
5.38861e-06 -0.000182292 -7.83006e-05 -0.000571286 -0.000900769 -0.000153666 -5.44347e-05 -6.77189e-05 -0.000438703 
0.000123102 -0.000911628 0.000510195 -0.000625831 -0.000666467 0.000329947 0.00144432 -0.00976457 0.00071172 
-3.51248e-06 -8.50548e-05 5.1066e-05 -0.000183402 -0.000415872 1.06387e-05 -0.000235071 -0.000438924 -0.000322512 
0.000538025 -0.000509307 -0.00034661 -0.000627015 -0.000150786 0.000324241 -0.00047191 -0.000369583 -0.000155599 
-0.000680461 -1.8939e-05 2.64953e-05 -0.000350459 -0.000360693 -0.000269498 -0.000611539 -0.000766291 -0.000421388 
-0.00062373 0.000259904 0.00021898 -0.000391318 -0.000314499 0.00070642 -0.000277618 -0.000711393 0.000187768 
-0.000392711 -3.25516e-05 0.000116638 -0.00020857 -7.37346e-05 0.000163515 -0.000237861 9.75447e-05 0.000325769 
-0.000261368 -0.000160194 -0.000149918 -0.000472238 -0.000230314 -0.000409655 -0.000787184 -0.000232868 -0.000761966 
-0.00146031 -0.000201146 -0.000409223 -0.00139389 0.000469083 0.000212103 0.000254568 -0.000661722 -0.000122165 
-0.000403251 -0.000346418 0.000386084 -0.000719853 -0.000430055 6.82703e-06 -0.000283519 6.33609e-05 0.000309913 
-0.000163406 9.3483e-05 -0.000130001 -0.00040779 0.00121896 -0.00116149 0.00133924 -2.16123e-05 1.24237e-05 
5.47869e-05 -0.000151022 3.14716e-05 -0.000608827 0.000161874 -0.000391826 -0.000481224 0.00124369 -0.000435045 
9.82697e-05 -7.64333e-05 -0.000552661 6.21849e-05 -0.000157116 -0.000488454 0.000375535 3.14231e-06 -0.000213129 
-0.000199472 0.000112076 4.25325e-05 -0.000456866 0.000140305 -0.000337488 -0.00069205 0.000554063 -0.000377892 
-5.44778e-05 -6.77341e-05 -0.000376623 -9.57372e-05 7.685e-05 -0.000345086 -0.000117779 3.09743e-05 -0.000412745 
1.57651e-05 -4.27354e-05 -0.000122004 6.70294e-05 0.000141474 -0.000246127 9.51009e-05 7.99219e-05 -0.000319065 
-0.000555357 6.25954e-06 -0.000354422 6.25808e-05 -9.03159e-05 -0.000615749 0.00029103 0.000287374 -2.15048e-05 
-0.000230558 0.000379977 -0.000561937 5.27069e-07 -6.63133e-06 -0.000402678 0.000187568 0.00019456 -0.000763593 
0.000116493 6.17332e-05 -0.000240237 0.000214765 -3.33394e-05 -0.000158411 1.00266e-05 5.42e-05 -0.000533456 
0.000302924 0.00030744 0.000291142 0.00127786 0.000623557 0.000673538 0.000358349 0.000635019 0.000614832 
5.04614e-05 -0.000846076 0.000361249 0.000874268 0.000300728 0.000869163 8.54905e-05 0.000189068 -0.000378415 
-0.000459683 0.000396578 0.00119052 0.000158664 -0.00038236 -0.00021986 -1.89391e-05 -6.40674e-05 0.00042024 
0.000264155 -8.70542e-05 0.000734886 1.82392e-05 -0.00010916 0.000912937 -0.000251996 -0.000539489 -5.46152e-05 
0.00165351 0.00121835 -0.000615715 0.00312821 -0.00187616 0.00153234 2.53847e-05 -0.000156602 0.000368449 
-0.000369605 -0.000207865 0.000712203 0.00110646 0.00219634 -0.000333234 0.000147938 -0.000196111 0.000600234 
-0.00127428 9.12484e-05 -0.000371618 -0.000509016 0.000160015 0.000116095 -0.000255285 2.64732e-05 0.00016226 
-0.000905628 -0.000474704 -0.000533328 0.000675919 -0.00066318 -0.00111751 -0.00098689 -8.66214e-05 -0.00127931 
-0.000943724 -0.000239379 -0.000576699 -0.000848273 0.000109337 -0.00107907 -0.00135854 0.000761368 -0.00109698 
-5.20673e-05 0.000488939 -0.000241804 -0.000320549 5.87288e-05 0.000333992 -0.00103286 0.00075716 -0.000125248 
0.000236864 0.000267563 -6.54145e-05 -0.00125591 0.000941759 -0.00104982 -0.000424285 0.000651218 -0.00089599 
0.000740115 0.000241892 0.000590077 0.000606443 0.00022517 0.00039726 8.43747e-05 -0.000366277 -0.000138439 
0.000347698 -0.000170904 1.40563e-05 0.00056002 0.000641356 0.000682181 0.000613726 0.000143165 -0.00016025 
0.000551764 4.56248e-05 4.18788e-05 0.000489242 0.000398148 -0.000346906 3.66995e-05 -0.00010123 -0.000274425 
5.01275e-05 -0.000311215 -0.000288818 3.16281e-06 -0.000480156 -0.000122646 0.000174222 -0.00118543 0.000123807 
0.000737905 -0.000403589 0.000586299 0.00142124 0.00088673 0.000955511 2.41384e-05 0.000944419 -0.000421093 
7.3483e-05 5.90907e-05 -0.000597152 -4.13669e-05 -0.000132803 5.88695e-06 0.00106684 -3.49924e-05 -0.000291721 
0.000141231 0.00102163 0.000749709 4.61092e-05 0.000414614 -0.000397051 -2.90995e-05 0.000104137 -0.000100767 
-0.000175789 -0.000742438 0.000282438 -0.000169239 -0.000978441 0.000534425 -0.000431217 -0.00112423 0.00150769 
0.00204889 0.00152164 0.000596811 9.68132e-05 -0.000161973 -0.000626554 -0.00122031 -0.000525726 0.000672161 
-0.000989645 -0.00114235 0.000274704 0.000425796 0.00187583 -0.000546724 0.00660603 0.000301888 0.00446056 
0.00702038 -0.000457177 0.000123367 0.00405727 -7.33393e-05 0.0056723 -9.35212e-05 -0.000145967 0.000495623 
-0.000280443 0.000173002 0.00134801 0.00178758 0.000564557 -0.000329398 -0.000866052 0.00133513 4.68299e-05 
-0.000702272 0.00225142 -0.00122887 0.00108254 -0.00417878 -0.00253427 0.000478878 -0.000741395 -0.000398579 
7.34531e-05 0.000166889 0.000324355 -0.000137237 -0.000450992 0.000769124 0.00274147 0.00393434 -0.00335922 
0.0009262 -0.00119843 -0.0028623 9.12624e-06 0.000412395 0.000470119 3.04956e-05 -0.000243032 0.00104139 
6.08423e-05 -0.00023482 0.000892292 -0.000313873 -0.000415237 -0.00107762 4.2666e-05 0.000151328 0.000936529 
-0.000528183 0.0031454 -0.00196897 6.26466e-05 0.000621128 -0.000364583 -0.000288561 0.000314035 -9.51175e-05 
-0.000274592 4.23914e-05 0.00138135 -0.000347578 -0.000331746 4.21024e-05 -0.00108248 -1.59033e-05 -0.00117633 
-9.9307e-05 -0.000398388 0.000560633 0.000339052 0.00100743 0.000194751 0.000110092 -0.000153523 0.000257436 
-0.000187077 -0.000267311 0.000527979 -0.00071017 -0.0010214 -0.000711766 -0.000324883 0.000416275 -0.00116606 
-0.000415981 -0.000141645 0.000342417 -0.00053515 0.000762355 0.000756138 -0.000362777 0.000386879 0.00019856 
-0.000275009 7.10283e-05 -0.000145943 -0.000285252 -0.000377212 -0.000230553 0.00201356 -0.0005084 -0.000767278 
-5.60801e-05 -0.000243989 0.00116454 6.84351e-06 0.000112369 -0.000138102 0.000201093 0.00014486 7.16217e-05 
-0.000116739 -8.81857e-05 0.000463455 -0.000282781 -0.000598491 -0.000819723 -0.00089119 -0.000174521 -0.000175332 
0.000444828 0.00116528 0.00035789 -0.00062035 -0.000371602 -5.12989e-05 -0.000423396 -0.000315797 6.33005e-05 
0.000119626 -4.92433e-05 0.000485565 -0.000488435 -0.000234437 -0.000296355 -0.000513371 -0.000125775 -0.00164918 
-0.000382845 0.000904781 -0.000904444 -0.00043616 -0.000125602 -0.000234695 -0.000384222 -8.52905e-05 -0.000695963 
-0.000882623 0.00143249 -0.0024617 -0.000662386 0.00144899 0.000336438 -0.000728894 0.000355252 -0.0010281 
0.000434444 0.000498426 -0.00182129 6.90744e-05 0.000122435 0.000144065 -0.000479393 0.000498625 -0.000765461 