# vtk DataFile Version 4.0
Generated by LIGGGHTS
ASCII
DATASET POLYDATA
POINTS 890 float
0.0144795 -0.0372965 0.00494407 -0.0276875 -0.0287783 0.00395339 -0.0160509 -0.0209478 0.0039229 
0.0176524 -0.0233495 0.00422238 -0.0253633 -0.00249385 0.0038381 0.0410639 -3.6362e-05 0.00472668 
-0.0287496 0.00461143 0.00394512 -0.013383 0.00799065 0.0039375 0.0187348 0.0113117 0.0037275 
-0.0346206 0.0168252 0.00386083 -0.0285537 0.0281021 0.00535002 0.0166221 0.0362782 0.00389938 
-0.0125382 -0.0355814 0.00428204 -0.00204505 -0.0399691 0.00398287 -0.020776 -0.0358881 0.00426418 
0.00805921 -0.0256303 0.00404835 0.0298924 -0.0187004 0.00425694 -0.0374662 -0.0161181 0.00510788 
-0.00816509 -0.0197998 0.00389466 0.010481 -0.0176793 0.00397073 -0.0153664 -0.012654 0.00446016 
0.00308297 -0.010183 0.00418415 0.0178254 -0.00993384 0.0039304 0.0395858 -0.0148427 0.0047541 
-0.0422056 -0.00825141 0.00377555 -0.0312473 -0.00960009 0.00412047 0.00900474 -0.00472261 0.00396312 
-0.0125307 -0.00391677 0.00476363 -0.0199329 0.00305693 0.00580326 -0.00691305 0.00236975 0.0062412 
0.00449123 0.00265007 0.00401259 0.0176285 0.00256252 0.0062634 -0.0389993 0.00643797 0.00438792 
0.0268816 0.00657642 0.00492967 -0.0219553 0.0133425 0.00514943 0.010213 0.0134725 0.00427801 
-0.00342132 0.020118 0.00415322 0.00535492 0.0202119 0.00391858 0.0261419 0.014812 0.00510716 
-0.0133941 0.0214181 0.00546604 0.0224712 0.022854 0.00475552 0.0346385 0.0201642 0.00518983 
-0.00761297 0.0273956 0.00582719 0.0110935 0.027852 0.00375857 -0.0206681 0.0305194 0.0046587 
0.00131679 0.0322015 0.00457047 0.0242671 0.0322093 0.00406629 -0.00994211 0.0351193 0.00449455 
-0.00192541 0.0395972 0.00507863 -0.00798965 -0.0400936 0.00932453 0.0052795 -0.0368441 0.00666753 
-0.00387378 -0.0310147 0.00594693 -0.0201551 -0.0276972 0.00581153 -0.010687 -0.0274369 0.00382251 
0.0238027 -0.0286295 0.00414808 -0.0318147 -0.0227891 0.0070206 0.0335209 -0.0274886 0.00834863 
-0.0246413 -0.0174365 0.00391501 -0.0109543 -0.0168688 0.0108403 0.000393389 -0.0193997 0.00638532 
-0.00575343 -0.0120252 0.00678485 0.0188299 -0.0155245 0.00942151 0.0308643 -0.010737 0.00418505 
-0.0196397 -0.00627287 0.00782233 0.0106728 -0.0106129 0.0104525 0.0249105 -0.00464576 0.00432847 
0.0408184 -0.00645953 0.00916099 0.0335984 0.0053751 0.00864003 -0.00155344 0.00891025 0.00411057 
-0.0295664 0.0132475 0.00912164 -0.00921163 0.014698 0.00625709 0.0374708 0.0126265 0.00433317 
-0.0336845 0.0233553 0.0104798 0.0186355 0.0278603 0.00988083 0.02995 0.0272234 0.00700768 
0.00825976 0.0367989 0.00539422 -0.0144914 -0.0361971 0.0120963 0.000279366 -0.0394235 0.0126559 
0.0114157 -0.0382947 0.0122309 0.00324154 -0.0284789 0.00959966 0.0113964 -0.0275765 0.0107441 
0.0228728 -0.0272533 0.0115718 -0.0241924 -0.0214174 0.0107209 -0.0054636 -0.0235299 0.0101016 
0.00616099 -0.0183675 0.0117358 0.0289325 -0.0146611 0.0109469 -0.0378619 -0.0101447 0.0104972 
-0.0253755 -0.0119328 0.00989392 -0.0178442 -0.0122767 0.0126101 0.0375725 -0.0142108 0.0123679 
0.00143401 -0.00899223 0.0122713 0.0192635 -0.00496264 0.0104691 -0.0408985 -0.00133468 0.00960596 
-0.0303512 -0.00164282 0.0101456 0.000381198 5.43627e-05 0.0107695 0.0100649 0.00107293 0.00937036 
0.0239942 0.00440341 0.0123164 -0.0406417 0.00646528 0.0120998 -0.013848 0.0040603 0.0116472 
0.00794238 0.0101204 0.0113866 0.0185194 0.0112212 0.0124921 -0.0161618 0.0156331 0.00993802 
-0.000432836 0.0153238 0.0110474 0.0276371 0.0183422 0.0128686 -0.0229634 0.0217541 0.00901748 
0.0176996 0.0199496 0.0108255 0.00822291 0.0291339 0.0125463 -0.00256668 0.0299838 0.0113084 
-0.012111 0.0397367 0.0112431 -0.00782553 -0.0337592 0.0161338 -0.0228435 -0.029397 0.013327 
-0.0345215 -0.0226313 0.0160966 -0.0134208 -0.02419 0.0138216 0.0289633 -0.0230494 0.01624 
0.0151484 -0.0204954 0.0156546 -0.0283296 -0.0144789 0.0170584 -0.0302179 -0.00572141 0.0167194 
-0.00891097 -0.00666881 0.0126464 0.0149681 -0.0109177 0.0171519 0.0281558 -0.00619759 0.0122098 
-0.0201875 -0.00107379 0.0143323 0.0363118 -0.00151298 0.0135525 -0.00617561 0.00238125 0.0152302 
0.0166861 0.00330753 0.0165165 -0.0306709 0.00617494 0.0129821 -0.0211553 0.00729815 0.0123903 
0.0399213 0.00889397 0.0144207 -0.00867948 0.0140494 0.0154746 -0.0351036 0.0159244 0.0155085 
0.0352043 0.018976 0.0153616 -0.00509658 0.0217497 0.0133783 -0.0286031 0.0281258 0.0165254 
-0.0144833 0.0286201 0.012367 0.0259638 0.0285037 0.0140326 -0.00722823 0.0362774 0.0164305 
0.00375612 0.0390675 0.0130488 0.01619 0.0357529 0.0142245 0.00503728 -0.0379275 0.019244 
-0.020506 -0.0341821 0.0193367 -0.00196693 -0.0282275 0.0189497 0.0144589 -0.0279577 0.0184406 
-0.0276381 -0.0241576 0.021484 0.00663876 -0.0222996 0.0190192 -0.0202266 -0.0192633 0.0193401 
-0.00288196 -0.0170893 0.0171337 -0.0357554 -0.0104598 0.0200135 -0.0126327 -0.0134216 0.0184848 
0.00709361 -0.0106972 0.0208621 0.0215182 -0.0134009 0.020798 0.0314641 -0.0131568 0.0180587 
-0.02213 -0.00901843 0.0184073 0.00967617 -0.00261492 0.0186832 0.0184301 -0.00316185 0.0214479 
0.0280919 -6.60039e-05 0.0181674 -0.0390215 0.00466365 0.0199113 -0.0139226 0.00275073 0.0196868 
-0.0303351 0.00743636 0.0217557 0.000680385 0.00523002 0.018643 0.0216719 0.00980319 0.0208405 
0.029731 0.00848041 0.0175824 0.00540928 0.0137283 0.0192197 0.0126971 0.0102905 0.0206535 
-0.0260561 0.015822 0.0188605 0.0155946 0.0183603 0.0192385 -0.0164544 0.021675 0.0198731 
0.00453694 0.0222854 0.0173312 0.02714 0.0227888 0.0198612 0.0066576 0.0295576 0.0202881 
0.0178227 0.0261731 0.0179528 -0.0178244 0.0350301 0.0172342 -0.0118741 -0.0388246 0.0243522 
0.0164221 -0.0310863 0.0252412 -0.0157022 -0.0263476 0.0264745 0.00357532 -0.0296141 0.0262667 
-0.00591852 -0.0225618 0.0231624 0.0334884 -0.0210839 0.0229998 -0.0351935 -0.0176513 0.0254625 
0.00976639 -0.0163071 0.0268169 -0.00644792 -0.0101277 0.0228316 0.00248927 -0.0129175 0.027039 
-1.6371e-05 -0.00514756 0.0254473 0.0283859 -0.00754665 0.0229334 -0.0281884 -0.00471383 0.0243506 
0.0143943 0.00441637 0.0269366 0.0306997 0.000426933 0.0261626 -0.0383405 0.0118114 0.0241672 
-0.00254294 0.0108689 0.0241058 0.036184 0.0142265 0.0238478 -0.0182754 0.0151422 0.025252 
0.00384602 0.0199777 0.0250719 -0.0351591 0.0207166 0.0244459 -0.00675135 0.0201009 0.0266546 
0.0110111 0.0233405 0.0237595 -0.021236 0.0268266 0.0237479 -0.0103815 0.0282029 0.0267951 
0.0269584 0.0291132 0.0263446 -0.0165339 0.033954 0.0253602 -0.00295406 0.0311373 0.0239442 
0.0201686 0.0340128 0.0221097 0.000184504 0.0409528 0.0231502 -0.00157646 -0.0355151 0.0291827 
-0.0117292 -0.0326181 0.0300311 0.0230353 -0.0263368 0.0291531 -0.0212389 -0.022674 0.031308 
0.000673357 -0.0228828 0.0315423 -0.0161406 -0.0150432 0.0307451 -0.00592885 -0.016125 0.0286673 
0.0266291 -0.0153431 0.0310028 0.0181257 -0.0111289 0.0287596 -0.0396322 -0.008703 0.0315988 
-0.0120757 -0.00630414 0.0277041 0.0322467 -0.00914745 0.0318137 0.0393687 -0.0096563 0.0279221 
-0.0217734 -0.00486891 0.0306517 -0.0362204 0.00299207 0.0300075 0.00267215 0.000817988 0.0302558 
0.0395783 0.00200137 0.0287516 -0.0218102 0.00573907 0.0280898 0.0075028 0.00964294 0.0317971 
-0.0107521 0.0102158 0.0274076 -0.0262486 0.0189657 0.0283049 0.0190752 0.0170969 0.0287238 
0.0267169 0.0217022 0.0319591 0.0196219 0.0257985 0.027228 -0.0224942 0.0305271 0.0318463 
-0.00811056 0.0357534 0.0287968 0.0129289 0.035416 0.0282727 -0.001807 -0.0402272 0.0360591 
0.00672348 -0.0384549 0.0323355 0.0167481 -0.0349526 0.0355893 -0.0290894 -0.025046 0.0357511 
-0.00336465 -0.0296566 0.0362316 -0.0100954 -0.0233968 0.0347556 0.0118491 -0.0219778 0.0323188 
-0.0351185 -0.0167246 0.0338725 0.0347201 -0.019327 0.0350348 -0.0237123 -0.0130833 0.0332483 
-0.000761096 -0.0117444 0.0369812 -0.0142124 -0.00832264 0.0360599 0.0394972 -0.00986483 0.0366628 
0.00780717 -0.00495986 0.033118 0.0173604 -0.00350324 0.035533 0.0232299 0.00484504 0.0346325 
-0.0387045 0.0128613 0.0322204 -0.0222167 0.0145535 0.0342029 0.0265772 0.0126365 0.0361686 
0.0346204 0.0143661 0.0358839 -0.000839767 0.0160421 0.03286 0.0152519 0.018725 0.0357649 
-0.0296061 0.0203476 0.0359197 -0.0184623 0.0237961 0.0343845 -0.00988376 0.0235979 0.0337486 
0.00274324 0.0256703 0.0336026 0.0103472 0.0257882 0.0363254 0.0264443 0.0299917 0.0344136 
0.00448439 0.0391485 0.0330911 -0.0137696 -0.036468 0.0379134 -0.0192741 -0.0292013 0.0386402 
0.00253667 -0.0261115 0.0416591 0.0130429 -0.0283338 0.0400919 -0.0351026 -0.0200658 0.0413251 
0.0246151 -0.0243926 0.0401762 -0.0177259 -0.0193857 0.040126 -0.00699992 -0.0176079 0.0406355 
0.00776905 -0.0155035 0.0383201 0.0256278 -0.013822 0.0404508 -0.0394229 -0.00112012 0.0405128 
-0.0302019 -0.00255533 0.0379162 -0.00593349 -0.00409208 0.0410019 0.0316795 -0.00289269 0.0379052 
-0.0115825 0.00350108 0.0379974 0.00453052 0.00442751 0.0390291 0.0129109 0.00340471 0.0385821 
-0.0260994 0.00780652 0.0407601 0.0399053 0.00867933 0.0394341 -0.0333176 0.0117048 0.0393633 
-0.0132365 0.0140182 0.0393752 -0.00598081 0.0105642 0.0372489 0.0205475 0.0111319 0.0414683 
-0.0202887 0.0178417 0.0419714 0.0037442 0.0187733 0.0396947 -0.00888793 0.0205245 0.041237 
-0.0280206 0.0282943 0.0383681 -0.0124912 0.0298634 0.0415149 -0.00446437 0.0274108 0.0405104 
0.0212982 0.0295903 0.0410578 0.028586 0.0254242 0.0409807 -0.0177548 0.0354377 0.0374711 
-0.00110627 0.0369693 0.0396344 0.0100051 0.0357591 0.039705 0.000447699 -0.0355199 0.0453412 
-0.0248862 -0.0323873 0.0436452 -0.0170521 -0.034058 0.0451545 -0.00740253 -0.0343955 0.0428214 
0.0217765 -0.0327997 0.0434397 -0.0042587 -0.0259078 0.0463885 -0.0275417 -0.0233321 0.0450911 
0.0147997 -0.0216185 0.0454468 0.0315821 -0.020328 0.0454108 0.00509682 -0.0177095 0.0458305 
-0.0336188 -0.0108284 0.0444231 -0.0255383 -0.0120707 0.0468745 0.0162193 -0.0116317 0.0424665 
0.0381797 -0.0145662 0.0445121 0.00148293 -0.00635714 0.0430168 -0.0194225 -0.00394201 0.0447013 
0.0243593 -0.00376001 0.0428726 0.0178266 0.00150931 0.0452757 -0.0385657 0.00663925 0.0435879 
[...]
POINT_DATA 890
FIELD FieldData 9
id 1 890 int
347 582 810 449 731 873 654 473 274 
2 662 546 395 328 203 153 388 627 
477 602 755 634 249 169 740 351 119 
62 702 199 506 483 307 738 657 534 
432 278 450 180 531 858 35 408 53 
641 706 89 859 635 800 236 256 806 
677 177 396 471 90 860 39 28 671 
876 145 134 46 538 197 10 787 174 
138 298 430 416 596 650 139 603 586 
284 871 739 521 102 275 190 666 884 
333 176 329 189 830 319 570 675 82 
159 195 575 426 390 418 14 469 41 
742 398 713 97 630 206 692 874 323 
11 779 120 520 385 659 827 175 708 
461 317 508 672 224 222 462 842 349 
733 38 179 608 883 162 598 52 86 
611 192 759 696 216 341 411 265 259 
833 401 250 50 482 809 327 816 228 
276 118 116 478 440 258 724 4 231 
17 699 613 85 532 523 198 33 413 
625 879 682 350 217 849 698 140 804 
150 836 594 767 869 795 326 680 623 
737 242 101 196 65 111 66 142 664 
200 553 230 563 862 257 348 422 530 
244 295 363 227 67 689 503 405 726 
338 207 886 37 409 794 80 571 544 
113 601 622 55 636 676 105 366 679 
632 653 460 229 854 316 16 19 123 
314 501 289 687 851 309 358 218 499 
429 59 393 649 667 141 599 588 44 
182 367 514 383 821 262 313 96 765 
273 47 715 751 364 7 399 748 420 
519 365 376 776 337 467 167 780 184 
221 799 888 76 488 515 386 855 253 
606 568 121 797 541 766 64 796 171 
269 642 707 652 690 743 618 673 824 
651 576 535 252 498 464 322 628 239 
18 375 694 378 77 431 771 438 791 
574 489 266 725 125 881 722 149 778 
526 268 404 310 782 474 103 370 354 
758 414 215 21 246 5 645 749 87 
619 331 808 558 281 29 468 136 455 
844 597 42 545 419 392 880 56 504 
110 320 126 640 318 70 343 848 801 
674 339 875 94 811 695 251 397 104 
446 423 166 63 114 377 254 73 727 
802 812 721 243 612 803 108 451 240 
557 237 668 729 406 720 127 585 847 
308 92 510 311 609 22 660 578 547 
770 444 723 290 669 864 291 271 424 
701 336 700 517 205 445 457 30 223 
99 465 132 12 505 456 655 746 161 
129 380 572 122 34 360 248 775 747 
382 638 226 528 435 486 688 344 417 
332 373 286 637 829 479 736 448 292 
882 850 107 522 761 219 793 428 334 
381 798 870 600 837 187 744 495 75 
280 878 297 840 480 133 550 374 728 
3 315 788 463 68 838 648 579 72 
615 705 128 492 421 362 208 91 845 
458 466 71 36 785 160 407 57 164 
345 605 368 817 188 529 647 25 212 
115 857 537 88 285 626 610 124 559 
454 670 604 584 154 491 193 490 507 
772 369 452 260 263 683 581 562 475 
306 481 288 470 209 711 106 714 58 
210 148 518 580 691 819 867 616 26 
84 173 146 856 745 43 157 552 439 
852 402 885 8 9 681 305 186 357 
233 561 112 820 494 784 774 513 524 
484 294 389 556 352 735 403 757 45 
238 589 853 277 225 644 789 877 686 
335 442 1 15 863 264 6 69 54 
865 61 663 734 684 211 567 697 573 
202 493 629 433 527 346 220 213 178 
807 459 300 633 502 23 718 303 768 
425 509 516 321 282 245 685 191 777 
100 437 496 591 340 312 704 78 815 
359 826 83 441 583 40 843 716 400 
756 272 658 773 443 384 754 790 781 
764 147 117 135 301 656 412 717 577 
621 551 165 299 643 555 20 436 261 
805 476 753 356 887 569 304 98 415 
13 325 678 361 665 342 283 709 27 
511 831 24 170 750 614 51 394 763 
214 814 201 590 752 60 324 168 109 
835 565 631 769 330 533 434 732 485 
593 646 554 131 543 287 453 786 371 
137 158 247 93 130 234 512 156 270 
487 566 181 564 536 693 172 143 500 
255 391 890 548 95 355 302 822 185 
49 818 741 379 889 813 31 832 296 
703 712 539 81 834 661 560 868 620 
617 823 163 241 372 204 79 144 825 
410 194 279 32 183 472 427 587 719 
839 353 639 48 232 155 595 74 540 
549 760 293 624 497 151 872 447 152 
387 792 525 841 730 861 710 267 846 
762 866 235 542 828 783 592 607 
type 1 890 int
1 1 1 1 1 1 1 1 1 
1 1 1 1 1 1 1 1 1 
1 1 1 1 1 1 1 1 1 
1 1 1 1 1 1 1 1 1 
1 1 1 1 1 1 1 1 1 
1 1 1 1 1 1 1 1 1 
1 1 1 1 1 1 1 1 1 
1 1 1 1 1 1 1 1 1 
1 1 1 1 1 1 1 1 1 
1 1 1 1 1 1 1 1 1 
1 1 1 1 1 1 1 1 1 
1 1 1 1 1 1 1 1 1 
1 1 1 1 1 1 1 1 1 
1 1 1 1 1 1 1 1 1 
1 1 1 1 1 1 1 1 1 
1 1 1 1 1 1 1 1 1 
1 1 1 1 1 1 1 1 1 
1 1 1 1 1 1 1 1 1 
1 1 1 1 1 1 1 1 1 
1 1 1 1 1 1 1 1 1 
1 1 1 1 1 1 1 1 1 
1 1 1 1 1 1 1 1 1 
1 1 1 1 1 1 1 1 1 
1 1 1 1 1 1 1 1 1 
1 1 1 1 1 1 1 1 1 
1 1 1 1 1 1 1 1 1 
1 1 1 1 1 1 1 1 1 
1 1 1 1 1 1 1 1 1 
1 1 1 1 1 1 1 1 1 
1 1 1 1 1 1 1 1 1 
1 1 1 1 1 1 1 1 1 
1 1 1 1 1 1 1 1 1 
1 1 1 1 1 1 1 1 1 
1 1 1 1 1 1 1 1 1 
1 1 1 1 1 1 1 1 1 
1 1 1 1 1 1 1 1 1 
1 1 1 1 1 1 1 1 1 
1 1 1 1 1 1 1 1 1 
1 1 1 1 1 1 1 1 1 
1 1 1 1 1 1 1 1 1 
1 1 1 1 1 1 1 1 1 
1 1 1 1 1 1 1 1 1 
1 1 1 1 1 1 1 1 1 
1 1 1 1 1 1 1 1 1 
1 1 1 1 1 1 1 1 1 
1 1 1 1 1 1 1 1 1 
1 1 1 1 1 1 1 1 1 
1 1 1 1 1 1 1 1 1 
1 1 1 1 1 1 1 1 1 
1 1 1 1 1 1 1 1 1 
1 1 1 1 1 1 1 1 1 
1 1 1 1 1 1 1 1 1 
1 1 1 1 1 1 1 1 1 
1 1 1 1 1 1 1 1 1 
1 1 1 1 1 1 1 1 1 
1 1 1 1 1 1 1 1 1 
1 1 1 1 1 1 1 1 1 
1 1 1 1 1 1 1 1 1 
1 1 1 1 1 1 1 1 1 
1 1 1 1 1 1 1 1 1 
1 1 1 1 1 1 1 1 1 
1 1 1 1 1 1 1 1 1 
1 1 1 1 1 1 1 1 1 
1 1 1 1 1 1 1 1 1 
1 1 1 1 1 1 1 1 1 
1 1 1 1 1 1 1 1 1 
1 1 1 1 1 1 1 1 1 
1 1 1 1 1 1 1 1 1 
1 1 1 1 1 1 1 1 1 
1 1 1 1 1 1 1 1 1 
1 1 1 1 1 1 1 1 1 
1 1 1 1 1 1 1 1 1 
1 1 1 1 1 1 1 1 1 
1 1 1 1 1 1 1 1 1 
1 1 1 1 1 1 1 1 1 
1 1 1 1 1 1 1 1 1 
1 1 1 1 1 1 1 1 1 
1 1 1 1 1 1 1 1 1 
1 1 1 1 1 1 1 1 1 
1 1 1 1 1 1 1 1 1 
1 1 1 1 1 1 1 1 1 
1 1 1 1 1 1 1 1 1 
1 1 1 1 1 1 1 1 1 
1 1 1 1 1 1 1 1 1 
1 1 1 1 1 1 1 1 1 
1 1 1 1 1 1 1 1 1 
1 1 1 1 1 1 1 1 1 
1 1 1 1 1 1 1 1 1 
1 1 1 1 1 1 1 1 1 
1 1 1 1 1 1 1 1 1 
1 1 1 1 1 1 1 1 1 
1 1 1 1 1 1 1 1 1 
1 1 1 1 1 1 1 1 1 
1 1 1 1 1 1 1 1 1 
1 1 1 1 1 1 1 1 1 
1 1 1 1 1 1 1 1 1 
1 1 1 1 1 1 1 1 1 
1 1 1 1 1 1 1 1 1 
1 1 1 1 1 1 1 1 
i 3 890 int
0 0 0 0 0 0 0 0 0 
0 0 0 0 0 0 0 0 0 
0 0 0 0 0 0 0 0 0 
0 0 0 0 0 0 0 0 0 
0 0 0 0 0 0 0 0 0 
0 0 0 0 0 0 0 0 0 
0 0 0 0 0 0 0 0 0 
0 0 0 0 0 0 0 0 0 
0 0 0 0 0 0 0 0 0 
0 0 0 0 0 0 0 0 0 
0 0 0 0 0 0 0 0 0 
0 0 0 0 0 0 0 0 0 
0 0 0 0 0 0 0 0 0 
0 0 0 0 0 0 0 0 0 
0 0 0 0 0 0 0 0 0 
0 0 0 0 0 0 0 0 0 
0 0 0 0 0 0 0 0 0 
0 0 0 0 0 0 0 0 0 
0 0 0 0 0 0 0 0 0 
0 0 0 0 0 0 0 0 0 
0 0 0 0 0 0 0 0 0 
0 0 0 0 0 0 0 0 0 
0 0 0 0 0 0 0 0 0 
0 0 0 0 0 0 0 0 0 
0 0 0 0 0 0 0 0 0 
0 0 0 0 0 0 0 0 0 
0 0 0 0 0 0 0 0 0 
0 0 0 0 0 0 0 0 0 
0 0 0 0 0 0 0 0 0 
0 0 0 0 0 0 0 0 0 
0 0 0 0 0 0 0 0 0 
0 0 0 0 0 0 0 0 0 
0 0 0 0 0 0 0 0 0 
0 0 0 0 0 0 0 0 0 
0 0 0 0 0 0 0 0 0 
0 0 0 0 0 0 0 0 0 
0 0 0 0 0 0 0 0 0 
0 0 0 0 0 0 0 0 0 
0 0 0 0 0 0 0 0 0 
0 0 0 0 0 0 0 0 0 
0 0 0 0 0 0 0 0 0 
0 0 0 0 0 0 0 0 0 
0 0 0 0 0 0 0 0 0 
0 0 0 0 0 0 0 0 0 
0 0 0 0 0 0 0 0 0 
0 0 0 0 0 0 0 0 0 
0 0 0 0 0 0 0 0 0 
0 0 0 0 0 0 0 0 0 
0 0 0 0 0 0 0 0 0 
0 0 0 0 0 0 0 0 0 
0 0 0 0 0 0 0 0 0 
0 0 0 0 0 0 0 0 0 
0 0 0 0 0 0 0 0 0 
0 0 0 0 0 0 0 0 0 
0 0 0 0 0 0 0 0 0 
0 0 0 0 0 0 0 0 0 
0 0 0 0 0 0 0 0 0 
0 0 0 0 0 0 0 0 0 
0 0 0 0 0 0 0 0 0 
0 0 0 0 0 0 0 0 0 
0 0 0 0 0 0 0 0 0 
0 0 0 0 0 0 0 0 0 
0 0 0 0 0 0 0 0 0 
0 0 0 0 0 0 0 0 0 
0 0 0 0 0 0 0 0 0 
0 0 0 0 0 0 0 0 0 
0 0 0 0 0 0 0 0 0 
0 0 0 0 0 0 0 0 0 
0 0 0 0 0 0 0 0 0 
0 0 0 0 0 0 0 0 0 
0 0 0 0 0 0 0 0 0 
0 0 0 0 0 0 0 0 0 
0 0 0 0 0 0 0 0 0 
0 0 0 0 0 0 0 0 0 
0 0 0 0 0 0 0 0 0 
0 0 0 0 0 0 0 0 0 
0 0 0 0 0 0 0 0 0 
0 0 0 0 0 0 0 0 0 
0 0 0 0 0 0 0 0 0 
0 0 0 0 0 0 0 0 0 
0 0 0 0 0 0 0 0 0 
0 0 0 0 0 0 0 0 0 
0 0 0 0 0 0 0 0 0 
0 0 0 0 0 0 0 0 0 
0 0 0 0 0 0 0 0 0 
0 0 0 0 0 0 0 0 0 
0 0 0 0 0 0 0 0 0 
0 0 0 0 0 0 0 0 0 
0 0 0 0 0 0 0 0 0 
0 0 0 0 0 0 0 0 0 
0 0 0 0 0 0 0 0 0 
0 0 0 0 0 0 0 0 0 
0 0 0 0 0 0 0 0 0 
0 0 0 0 0 0 0 0 0 
0 0 0 0 0 0 0 0 0 
0 0 0 0 0 0 0 0 0 
0 0 0 0 0 0 0 0 0 
0 0 0 0 0 0 0 0 0 
0 0 0 0 0 0 0 0 0 
0 0 0 0 0 0 0 0 0 
0 0 0 0 0 0 0 0 0 
0 0 0 0 0 0 0 0 0 
0 0 0 0 0 0 0 0 0 
0 0 0 0 0 0 0 0 0 
0 0 0 0 0 0 0 0 0 
0 0 0 0 0 0 0 0 0 
0 0 0 0 0 0 0 0 0 
0 0 0 0 0 0 0 0 0 
0 0 0 0 0 0 0 0 0 
0 0 0 0 0 0 0 0 0 
0 0 0 0 0 0 0 0 0 
0 0 0 0 0 0 0 0 0 
0 0 0 0 0 0 0 0 0 
0 0 0 0 0 0 0 0 0 
0 0 0 0 0 0 0 0 0 
0 0 0 0 0 0 0 0 0 
0 0 0 0 0 0 0 0 0 
0 0 0 0 0 0 0 0 0 
0 0 0 0 0 0 0 0 0 
0 0 0 0 0 0 0 0 0 
0 0 0 0 0 0 0 0 0 
0 0 0 0 0 0 0 0 0 
0 0 0 0 0 0 0 0 0 
0 0 0 0 0 0 0 0 0 
0 0 0 0 0 0 0 0 0 
0 0 0 0 0 0 0 0 0 
0 0 0 0 0 0 0 0 0 
0 0 0 0 0 0 0 0 0 
0 0 0 0 0 0 0 0 0 
0 0 0 0 0 0 0 0 0 
0 0 0 0 0 0 0 0 0 
0 0 0 0 0 0 0 0 0 
0 0 0 0 0 0 0 0 0 
0 0 0 0 0 0 0 0 0 
0 0 0 0 0 0 0 0 0 
0 0 0 0 0 0 0 0 0 
0 0 0 0 0 0 0 0 0 
0 0 0 0 0 0 0 0 0 
0 0 0 0 0 0 0 0 0 
0 0 0 0 0 0 0 0 0 
0 0 0 0 0 0 0 0 0 
0 0 0 0 0 0 0 0 0 
0 0 0 0 0 0 0 0 0 
0 0 0 0 0 0 0 0 0 
0 0 0 0 0 0 0 0 0 
0 0 0 0 0 0 0 0 0 
0 0 0 0 0 0 0 0 0 
0 0 0 0 0 0 0 0 0 
0 0 0 0 0 0 0 0 0 
0 0 0 0 0 0 0 0 0 
0 0 0 0 0 0 0 0 0 
0 0 0 0 0 0 0 0 0 
0 0 0 0 0 0 0 0 0 
0 0 0 0 0 0 0 0 0 
0 0 0 0 0 0 0 0 0 
0 0 0 0 0 0 0 0 0 
0 0 0 0 0 0 0 0 0 
0 0 0 0 0 0 0 0 0 
0 0 0 0 0 0 0 0 0 
0 0 0 0 0 0 0 0 0 
0 0 0 0 0 0 0 0 0 
0 0 0 0 0 0 0 0 0 
0 0 0 0 0 0 0 0 0 
0 0 0 0 0 0 0 0 0 
0 0 0 0 0 0 0 0 0 
0 0 0 0 0 0 0 0 0 
0 0 0 0 0 0 0 0 0 
0 0 0 0 0 0 0 0 0 
0 0 0 0 0 0 0 0 0 
0 0 0 0 0 0 0 0 0 
0 0 0 0 0 0 0 0 0 
0 0 0 0 0 0 0 0 0 
0 0 0 0 0 0 0 0 0 
0 0 0 0 0 0 0 0 0 
0 0 0 0 0 0 0 0 0 
0 0 0 0 0 0 0 0 0 
0 0 0 0 0 0 0 0 0 
0 0 0 0 0 0 0 0 0 
0 0 0 0 0 0 0 0 0 
0 0 0 0 0 0 0 0 0 
0 0 0 0 0 0 0 0 0 
0 0 0 0 0 0 0 0 0 
0 0 0 0 0 0 0 0 0 
0 0 0 0 0 0 0 0 0 
0 0 0 0 0 0 0 0 0 
0 0 0 0 0 0 0 0 0 
0 0 0 0 0 0 0 0 0 
0 0 0 0 0 0 0 0 0 
0 0 0 0 0 0 0 0 0 
0 0 0 0 0 0 0 0 0 
0 0 0 0 0 0 0 0 0 
0 0 0 0 0 0 0 0 0 
0 0 0 0 0 0 0 0 0 
0 0 0 0 0 0 0 0 0 
0 0 0 0 0 0 0 0 0 
0 0 0 0 0 0 0 0 0 
0 0 0 0 0 0 0 0 0 
0 0 0 0 0 0 0 0 0 
0 0 0 0 0 0 0 0 0 
0 0 0 0 0 0 0 0 0 
0 0 0 0 0 0 0 0 0 
0 0 0 0 0 0 0 0 0 
0 0 0 0 0 0 0 0 0 
0 0 0 0 0 0 0 0 0 
0 0 0 0 0 0 0 0 0 
0 0 0 0 0 0 0 0 0 
0 0 0 0 0 0 0 0 0 
0 0 0 0 0 0 0 0 0 
0 0 0 0 0 0 0 0 0 
0 0 0 0 0 0 0 0 0 
0 0 0 0 0 0 0 0 0 
0 0 0 0 0 0 0 0 0 
0 0 0 0 0 0 0 0 0 
0 0 0 0 0 0 0 0 0 
0 0 0 0 0 0 0 0 0 
0 0 0 0 0 0 0 0 0 
0 0 0 0 0 0 0 0 0 
0 0 0 0 0 0 0 0 0 
0 0 0 0 0 0 0 0 0 
0 0 0 0 0 0 0 0 0 
0 0 0 0 0 0 0 0 0 
0 0 0 0 0 0 0 0 0 
0 0 0 0 0 0 0 0 0 
0 0 0 0 0 0 0 0 0 
0 0 0 0 0 0 0 0 0 
0 0 0 0 0 0 0 0 0 
0 0 0 0 0 0 0 0 0 
0 0 0 0 0 0 0 0 0 
0 0 0 0 0 0 0 0 0 
0 0 0 0 0 0 0 0 0 
0 0 0 0 0 0 0 0 0 
0 0 0 0 0 0 0 0 0 
0 0 0 0 0 0 0 0 0 
0 0 0 0 0 0 0 0 0 
0 0 0 0 0 0 0 0 0 
0 0 0 0 0 0 0 0 0 
0 0 0 0 0 0 0 0 0 
0 0 0 0 0 0 0 0 0 
0 0 0 0 0 0 0 0 0 
0 0 0 0 0 0 0 0 0 
0 0 0 0 0 0 0 0 0 
0 0 0 0 0 0 0 0 0 
0 0 0 0 0 0 0 0 0 
0 0 0 0 0 0 0 0 0 
0 0 0 0 0 0 0 0 0 
0 0 0 0 0 0 0 0 0 
0 0 0 0 0 0 0 0 0 
0 0 0 0 0 0 0 0 0 
0 0 0 0 0 0 0 0 0 
0 0 0 0 0 0 0 0 0 
0 0 0 0 0 0 0 0 0 
0 0 0 0 0 0 0 0 0 
0 0 0 0 0 0 0 0 0 
0 0 0 0 0 0 0 0 0 
0 0 0 0 0 0 0 0 0 
0 0 0 0 0 0 0 0 0 
0 0 0 0 0 0 0 0 0 
0 0 0 0 0 0 0 0 0 
0 0 0 0 0 0 0 0 0 
0 0 0 0 0 0 0 0 0 
0 0 0 0 0 0 0 0 0 
0 0 0 0 0 0 0 0 0 
0 0 0 0 0 0 0 0 0 
0 0 0 0 0 0 0 0 0 
0 0 0 0 0 0 0 0 0 
0 0 0 0 0 0 0 0 0 
0 0 0 0 0 0 0 0 0 
0 0 0 0 0 0 0 0 0 
0 0 0 0 0 0 0 0 0 
0 0 0 0 0 0 0 0 0 
0 0 0 0 0 0 0 0 0 
0 0 0 0 0 0 0 0 0 
0 0 0 0 0 0 0 0 0 
0 0 0 0 0 0 0 0 0 
0 0 0 0 0 0 0 0 0 
0 0 0 0 0 0 0 0 0 
0 0 0 0 0 0 0 0 0 
0 0 0 0 0 0 0 0 0 
0 0 0 0 0 0 0 0 0 
0 0 0 0 0 0 0 0 0 
0 0 0 0 0 0 0 0 0 
0 0 0 0 0 0 0 0 0 
0 0 0 0 0 0 0 0 0 
0 0 0 0 0 0 0 0 0 
0 0 0 0 0 0 0 0 0 
0 0 0 0 0 0 0 0 0 
0 0 0 0 0 0 0 0 0 
0 0 0 0 0 0 0 0 0 
0 0 0 0 0 0 0 0 0 
0 0 0 0 0 0 0 0 0 
0 0 0 0 0 0 0 0 0 
0 0 0 0 0 0 0 0 0 
0 0 0 0 0 0 0 0 0 
0 0 0 0 0 0 0 0 0 
0 0 0 0 0 0 0 0 0 
0 0 0 0 0 0 0 0 0 
0 0 0 0 0 0 
v 3 890 double
0.328886 0.0259667 -0.324281 -0.216469 -0.0552412 -0.0837908 -0.165048 0.0560572 -0.119891 
0.181945 0.112085 -0.229273 -0.058875 -0.00405191 0.104776 0.12959 -0.03564 -0.0205061 
-0.149661 0.0451384 0.02412 0.0486923 0.0772036 0.0469247 0.00442939 0.00950991 0.0635424 
-0.13562 -0.00543296 -0.0556725 0.0526055 0.0921602 -0.105447 0.168837 0.170973 -0.197613 
0.122214 0.0846335 0.11649 0.185029 -0.176053 0.059256 -0.123759 -0.135467 0.244656 
0.0198448 0.155746 0.0337296 -0.00700865 -0.0478916 0.10531 0.0230033 -0.263691 -0.0641975 
-0.216146 -0.0313002 -0.0795612 0.223738 0.0335132 -0.0846795 0.124334 0.0817898 -0.0464003 
0.00110529 -0.186801 -0.336804 -0.162157 -0.0915243 -0.292701 0.0786223 -0.203736 0.0475282 
-0.269146 -0.156409 -0.106691 0.00117941 -0.140613 0.164361 0.122697 0.130659 0.204372 
0 0 0.285242 0.0263746 -0.17435 -0.329623 0 0 0.122444 
0.0879259 0.126938 -0.191579 0 0 0.105872 0.0903468 0.0279724 -0.255515 
0.0390812 0.101348 -0.387613 -0.0755577 -0.266381 -0.198818 0.148675 -0.0369057 0.1624 
0.112706 0.0994206 0.029666 0.06755 0.206542 -0.291184 -0.0361648 -0.0853844 0.134256 
0.012865 0.097739 0.167392 -0.0397408 -0.0146259 0.163011 0.145337 -0.0668227 0.0502697 
-0.128572 -0.173002 0.0162951 0.0977836 -0.043665 0.0120852 0.0378542 0.0132578 0.282569 
-0.00654764 -0.00410251 0.220856 0.0426093 0.20195 0.0286375 -0.0191618 0.0998989 0.0979218 
0 0 0.264873 -0.116014 -0.234238 -0.0897043 0.0955598 0.081445 -0.412849 
-0.0719807 -0.042451 -0.383678 -0.00387659 -0.259243 -0.344596 -0.0315588 -0.0968246 -0.334508 
0.0287083 -0.0424886 0.00414416 -0.0678666 0.161952 -0.43334 0.112311 -0.27822 -0.152712 
0.0341235 -0.285472 -0.0871941 0.163952 0.154719 0.0698438 -0.0227457 -0.0159108 -0.401361 
-0.157602 0.11031 -0.236077 0.110079 -0.0692108 -0.308682 -0.0163913 -0.0279195 0.284237 
0.239631 0.0343548 -0.340486 -0.048542 -0.18966 -0.142839 0.0228269 0.191577 -0.397755 
0.190219 0.00721459 -0.271966 -0.0438164 0.00925681 -0.223333 -0.0231628 0.0335034 0.309839 
0.202784 0.123617 -0.332534 0.148856 0.0458616 -0.2076 0.0601024 -0.132747 0.30516 
-0.224766 -0.105168 -0.196524 -0.227338 -0.157294 -0.130569 0.174593 0.222189 -0.0816501 
-0.0907596 0.137581 -0.292865 -0.253203 0.122832 -0.352868 -0.0470641 -0.101363 -0.324035 
-0.0750369 -0.0297513 -0.252614 -0.048615 -0.0420436 -0.0631295 -0.0757453 -0.123931 -0.208257 
-0.0287083 0.0424886 -0.183776 0.00583803 -0.120507 -0.451801 0.0151966 -0.203487 -0.166601 
0.190242 0.030335 -0.2982 -0.145767 0.228905 -0.131442 0.036809 0.215469 -0.0795557 
-0.0701165 0.309527 -0.0636976 -0.00385146 -0.216876 -0.332502 -0.0244679 -0.0491492 -0.422622 
-0.048734 0.0450431 -0.0876202 0.0448591 0.247219 -0.0915158 -0.0193302 0.0837722 -0.257024 
-0.248582 -0.0563212 -0.281073 0.00933 -0.174889 -0.0450368 0.202412 0.222727 -0.00562945 
-0.13712 -0.123048 -0.0131065 -0.162652 0.14897 0.080638 -0.312907 -0.0920703 -0.0859808 
-0.110814 -0.152429 0.0429571 -0.00553296 0.00402897 -0.080978 -0.0492322 -0.0147296 -0.267158 
0 0 -0.496077 0.048128 0.115002 0.137589 -0.0293839 0.232694 -0.289364 
-0.235815 -0.228064 0.0157276 -0.110608 0.0496212 0.0321202 -0.0202434 -0.03341 0.140376 
-0.188553 0.248799 -0.126322 0 0 -0.496077 -0.075701 -0.0645255 -0.322119 
-0.0988425 0.0437889 -0.200005 0 0 -0.496077 0 0 -0.496077 
-0.121593 -0.213205 -0.207877 -0.0389268 -0.0210956 -0.415409 -0.0127583 -0.132227 -0.279663 
0 0 -0.496077 0.138803 -0.199107 -0.266911 0 0 -0.496077 
0.00597535 0.211851 -0.209099 -0.114091 0.150331 -0.356133 0.0927956 -0.0549937 -0.0659759 
0 0 -0.496077 -0.0538291 0.11773 -0.233325 -0.0392726 0.130745 -0.253475 
0.0946484 0.0856206 -0.33182 0 0 -0.496077 -0.184465 0.130905 -0.195937 
0.000606487 5.86314e-05 -0.495843 0 0 -0.496077 0.150502 0.172727 -0.185579 
0 0 -0.496077 0.166304 -0.0059719 -0.350271 0.110667 -0.0735995 -0.356188 
0 0 -0.496077 0 0 -0.496077 0.141839 0.0308737 -0.30449 
0 0 -0.496077 0 0 -0.496077 0.088649 0.0221181 -0.202335 
0 0 -0.496077 0 0 -0.496077 0 0 -0.496077 
0 0 -0.496077 -9.2876e-05 -8.4682e-05 -0.496014 0.104106 -0.029292 -0.359582 
-0.113425 -0.0197065 -0.408322 0.021937 -0.00928472 -0.482168 0.0698279 0.0580025 -0.261147 
-0.055475 0.0360959 -0.417351 0 0 -0.496077 0.127102 0.173792 -0.315061 
0 0 -0.496077 0.0561123 -0.0581319 -0.0462402 0 0 -0.496077 
0 0 -0.496077 0 0 -0.496077 0 0 -0.496077 
0 0 -0.496077 0 0 -0.496077 0 0 -0.496077 
0 0 -0.496077 0 0 -0.496077 0 0 -0.496077 
0 0 -0.496077 0 0 -0.496077 -0.00452401 0.00179052 -0.479936 
0 0 -0.496077 0 0 -0.496077 0 0 -0.496077 
0.0545597 -0.0706334 -0.317401 0 0 -0.496077 0 0 -0.496077 
0 0 -0.496077 0 0 -0.496077 0 0 -0.496077 
0 0 -0.496077 0 0 -0.496077 0 0 -0.496077 
0 0 -0.496077 0 0 -0.496077 0.00148185 0.000367459 -0.490054 
0 0 -0.496077 0 0 -0.496077 0 0 -0.496077 
0 0 -0.496077 0 0 -0.496077 0 0 -0.496077 
0 0 -0.496077 0 0 -0.496077 0 0 -0.496077 
0 0 -0.496077 0 0 -0.496077 0 0 -0.496077 
0 0 -0.496077 0 0 -0.496077 0 0 -0.496077 
0 0 -0.496077 0 0 -0.496077 0 0 -0.496077 
0 0 -0.496077 0 0 -0.496077 0 0 -0.496077 
0 0 -0.496077 0 0 -0.496077 0 0 -0.496077 
0 0 -0.496077 0 0 -0.496077 0 0 -0.496077 
0 0 -0.496077 0 0 -0.496077 0 0 -0.496077 
0 0 -0.496077 0 0 -0.496077 0 0 -0.496077 
0 0 -0.496077 0 0 -0.496077 0 0 -0.496077 
0 0 -0.496077 0 0 -0.496077 0 0 -0.496077 
0 0 -0.496077 0 0 -0.496077 0 0 -0.496077 
0 0 -0.496077 0 0 -0.496077 0 0 -0.496077 
0 0 -0.496077 0 0 -0.496077 0 0 -0.496077 
0 0 -0.496077 0 0 -0.496077 0 0 -0.496077 
0 0 -0.496077 0 0 -0.496077 0 0 -0.496077 
0 0 -0.496077 0 0 -0.496077 0 0 -0.496077 
0 0 -0.496077 0 0 -0.496077 0 0 -0.496077 
0 0 -0.496077 0 0 -0.496077 0 0 -0.496077 
0 0 -0.496077 0 0 -0.496077 0 0 -0.496077 
0 0 -0.496077 0 0 -0.496077 0 0 -0.496077 
0 0 -0.496077 0 0 -0.496077 0 0 -0.496077 
0 0 -0.496077 0 0 -0.496077 0 0 -0.496077 
0 0 -0.496077 0 0 -0.496077 0 0 -0.496077 
0 0 -0.496077 0 0 -0.496077 0 0 -0.496077 
0 0 -0.496077 0 0 -0.496077 0 0 -0.496077 
0 0 -0.496077 0 0 -0.496077 0 0 -0.496077 
0 0 -0.496077 0 0 -0.496077 0 0 -0.496077 
0 0 -0.496077 0 0 -0.496077 0 0 -0.496077 
0 0 -0.496077 0 0 -0.496077 0 0 -0.496077 
0 0 -0.496077 0 0 -0.496077 0 0 -0.496077 
0 0 -0.496077 0 0 -0.496077 0 0 -0.496077 
0 0 -0.496077 0 0 -0.496077 0 0 -0.496077 
0 0 -0.496077 0 0 -0.496077 0 0 -0.496077 
0 0 -0.496077 0 0 -0.496077 0 0 -0.496077 
0 0 -0.496077 0 0 -0.496077 0 0 -0.496077 
0 0 -0.496077 0 0 -0.496077 0 0 -0.496077 
0 0 -0.496077 0 0 -0.496077 0 0 -0.496077 
0 0 -0.496077 0 0 -0.496077 0 0 -0.496077 
0 0 -0.496077 0 0 -0.496077 0 0 -0.496077 
0 0 -0.496077 0 0 -0.496077 0 0 -0.496077 
0 0 -0.496077 0 0 -0.496077 0 0 -0.496077 
0 0 -0.496077 0 0 -0.496077 0 0 -0.496077 
0 0 -0.496077 0 0 -0.496077 0 0 -0.496077 
0 0 -0.496077 0 0 -0.496077 0 0 -0.496077 
0 0 -0.496077 0 0 -0.496077 0 0 -0.496077 
0 0 -0.496077 0 0 -0.496077 0 0 -0.496077 
0 0 -0.496077 0 0 -0.496077 0 0 -0.496077 
0 0 -0.496077 0 0 -0.496077 0 0 -0.496077 
0 0 -0.496077 0 0 -0.496077 0 0 -0.496077 
0 0 -0.496077 0 0 -0.496077 0 0 -0.496077 
0 0 -0.496077 0 0 -0.496077 0 0 -0.496077 
0 0 -0.496077 0 0 -0.496077 0 0 -0.496077 
0 0 -0.496077 0 0 -0.496077 0 0 -0.496077 
0 0 -0.496077 0 0 -0.496077 0 0 -0.496077 
0 0 -0.496077 0 0 -0.496077 0 0 -0.496077 
0 0 -0.496077 0 0 -0.496077 0 0 -0.496077 
0 0 -0.496077 0 0 -0.496077 0 0 -0.496077 
0 0 -0.496077 0 0 -0.496077 0 0 -0.496077 
0 0 -0.496077 0 0 -0.496077 0 0 -0.496077 
0 0 -0.496077 0 0 -0.496077 0 0 -0.496077 
0 0 -0.496077 0 0 -0.496077 0 0 -0.496077 
0 0 -0.496077 0 0 -0.496077 0 0 -0.496077 
0 0 -0.496077 0 0 -0.496077 0 0 -0.496077 
0 0 -0.496077 0 0 -0.496077 0 0 -0.496077 
0 0 -0.496077 0 0 -0.496077 0 0 -0.496077 
0 0 -0.496077 0 0 -0.496077 0 0 -0.496077 
0 0 -0.496077 0 0 -0.496077 0 0 -0.496077 
0 0 -0.496077 0 0 -0.496077 0 0 -0.496077 
0 0 -0.496077 0 0 -0.496077 0 0 -0.496077 
0 0 -0.496077 0 0 -0.496077 0 0 -0.496077 
0 0 -0.496077 0 0 -0.496077 0 0 -0.496077 
0 0 -0.496077 0 0 -0.496077 0 0 -0.496077 
0 0 -0.496077 0 0 -0.496077 0 0 -0.496077 
0 0 -0.496077 0 0 -0.496077 0 0 -0.496077 
0 0 -0.496077 0 0 -0.496077 0 0 -0.496077 
0 0 -0.496077 0 0 -0.496077 0 0 -0.496077 
0 0 -0.496077 0 0 -0.496077 0 0 -0.496077 
0 0 -0.496077 0 0 -0.496077 0 0 -0.496077 
0 0 -0.496077 0 0 -0.496077 0 0 -0.496077 
0 0 -0.496077 0 0 -0.496077 0 0 -0.496077 
0 0 -0.496077 0 0 -0.496077 0 0 -0.496077 
0 0 -0.496077 0 0 -0.496077 0 0 -0.496077 
0 0 -0.496077 0 0 -0.496077 0 0 -0.496077 
0 0 -0.496077 0 0 -0.496077 0 0 -0.496077 
0 0 -0.496077 0 0 -0.496077 0 0 -0.496077 
0 0 -0.496077 0 0 -0.496077 0 0 -0.496077 
0 0 -0.496077 0 0 -0.496077 0 0 -0.496077 
0 0 -0.496077 0 0 -0.496077 0 0 -0.496077 
0 0 -0.496077 0 0 -0.496077 0 0 -0.496077 
0 0 -0.496077 0 0 -0.496077 0 0 -0.496077 
0 0 -0.496077 0 0 -0.496077 0 0 -0.496077 