# vtk DataFile Version 4.0
Generated by LIGGGHTS
ASCII
DATASET POLYDATA
POINTS 890 float
0.00188469 -0.0460629 0.00394671 -0.0191854 -0.0418376 0.00394265 -0.0116697 -0.0445204 0.00394579 
0.0107873 -0.0447601 0.00393568 0.0195009 -0.0417294 0.00393721 -0.0261443 -0.0379361 0.00394869 
-0.0131132 -0.0366772 0.00391857 -0.0035919 -0.0390932 0.00388794 0.00430987 -0.0385776 0.00391673 
0.0120596 -0.0369102 0.00394146 0.0263881 -0.0376823 0.00396486 -0.0322443 -0.0328601 0.00395486 
-0.0200494 -0.032897 0.00391185 -0.00685394 -0.0317624 0.00396787 0.00670198 -0.031048 0.00395475 
0.0193197 -0.0337997 0.00389606 0.0325307 -0.032543 0.00393064 -0.0337974 -0.0250783 0.00392533 
-0.0258737 -0.0274735 0.00391535 -0.013413 -0.0272316 0.00389792 -0.000945113 -0.0264138 0.00382805 
0.0140045 -0.0278486 0.00395409 0.0376893 -0.0265018 0.00390775 -0.0408078 -0.0213493 0.00390564 
-0.0201123 -0.0219573 0.00397281 -0.00770219 -0.0217125 0.00389312 0.00630439 -0.023168 0.00393954 
0.0222509 -0.0230511 0.00389853 0.0300878 -0.024265 0.00390249 -0.0278603 -0.019792 0.00392517 
-0.0139938 -0.0168373 0.00397066 -0.00014487 -0.0185032 0.003958 0.0071377 -0.0153188 0.0039524 
0.0144269 -0.0187785 0.00398181 0.0282098 -0.0165899 0.00486017 0.0358054 -0.0187728 0.00391417 
0.0432095 -0.0158486 0.00397208 -0.044968 -0.0100101 0.00396432 -0.0380606 -0.0138909 0.00389418 
-0.0302553 -0.0122044 0.00397522 -0.0221262 -0.0142431 0.00397011 -0.00552153 -0.0126615 0.00391942 
0.0135246 -0.0106508 0.00386924 0.0207906 -0.0138881 0.00388896 0.0350253 -0.0109131 0.0039745 
-0.0236642 -0.00643523 0.00388098 -0.014555 -0.00889375 0.00390239 0.0017653 -0.00945302 0.00393094 
0.0199591 -0.00597885 0.00393958 0.0274041 -0.00872618 0.00391933 0.0453034 -0.00814843 0.00390181 
-0.0393121 -0.00442636 0.00395055 -0.0313269 -0.00431532 0.00394002 -0.0175873 -0.00128568 0.00393594 
-0.00866962 -0.00359352 0.00396273 0.00837709 -0.00358033 0.003884 0.0282831 -0.000823255 0.0039222 
0.0385917 -0.00386403 0.00390902 -0.0460612 0.00160388 0.00386441 -0.0316363 0.00361293 0.00395277 
-0.0237002 0.00468802 0.00394489 -0.00827017 0.00437457 0.00393757 -0.00160439 1.35273e-05 0.00392054 
0.00568582 0.00387944 0.0039535 0.0219479 0.0039624 0.00391665 0.0456973 0.000973311 0.00398041 
-0.0450405 0.0094646 0.00391576 -0.0370611 0.0098827 0.00393029 -0.0159329 0.00652047 0.00397499 
-0.00113257 0.00793777 0.0039019 0.0128488 0.00760086 0.00390729 0.0293486 0.00708365 0.00391501 
0.0388043 0.00661357 0.00394835 -0.0291854 0.0111702 0.00394827 -0.0213028 0.0124019 0.0039232 
-0.0101737 0.0120836 0.00386588 0.0061112 0.011824 0.00393939 0.019758 0.0115874 0.00392599 
0.0271012 0.0146938 0.00395113 0.0349911 0.0136354 0.0039024 0.0443556 0.0123259 0.00393935 
-0.0427523 0.0170806 0.00393915 -0.0348081 0.0174627 0.00393652 -0.026281 0.018589 0.00389889 
-0.0154677 0.0180135 0.00396756 -0.00667141 0.019216 0.00391007 0.00550449 0.0197763 0.00392593 
0.0130104 0.0158232 0.00388999 0.0207563 0.0195023 0.00393422 0.041569 0.0197583 0.00393701 
-0.0390468 0.0243278 0.00396703 -0.020401 0.0242543 0.00394265 -0.000818518 0.0246647 0.00397769 
0.0284013 0.0225097 0.00392428 -0.0264217 0.0294693 0.00389438 -0.0132275 0.0277468 0.00391053 
0.00806583 0.0272913 0.00394786 0.016137 0.0264439 0.00392683 0.0250723 0.0296971 0.00387823 
0.037554 0.0266147 0.00392469 -0.0343058 0.0307552 0.00391698 -0.0192566 0.0328771 0.0038707 
-0.0059942 0.0309942 0.00390986 0.0023592 0.0328518 0.00394573 0.0105166 0.0348659 0.00396842 
0.0184277 0.0340431 0.00397882 0.0324334 0.0326857 0.00396874 -0.0268104 0.0374173 0.00398194 
-0.0118586 0.036364 0.0039605 -0.00338487 0.0384973 0.00388296 0.0262887 0.0377625 0.00391944 
-0.0199481 0.0414821 0.00395734 -0.0124838 0.0443065 0.00397256 0.00481196 0.0404059 0.00392515 
0.011521 0.0445946 0.00390543 0.019031 0.0419438 0.00396658 -0.000749608 0.0460554 0.00394896 
-0.00493718 -0.0458088 0.00796677 -0.008631 -0.0390709 0.00994284 -2.19643e-05 -0.0331469 0.0078135 
-0.0189277 -0.0275151 0.00956413 -0.00592214 -0.026533 0.00992683 0.0253478 -0.0297869 0.00692635 
0.0114693 -0.0232606 0.00995193 0.0406785 -0.0216793 0.00941849 -0.0430393 -0.0163452 0.00960905 
-0.0341264 -0.0187296 0.00874618 -0.0352289 -0.00877938 0.00921166 -0.0195979 -0.00949609 0.00992743 
-0.00322388 -0.00621422 0.00917274 0.00774003 -0.00938421 0.00916828 -0.0458545 -0.00412269 0.00924103 
-0.0253361 -0.000947827 0.00932562 0.00337243 -0.00180721 0.00976743 -0.0389503 0.00287704 0.00703527 
0.0151631 0.000164151 0.00540972 0.0401097 0.00126025 0.00968639 0.0455559 0.00697802 0.00966116 
-0.0156759 0.0122683 0.00951111 -0.02121 0.0179283 0.0099234 -0.000416505 0.0152856 0.00679398 
-0.0313279 0.0239804 0.00668754 0.0118868 0.0218988 0.00883977 0.034813 0.0204175 0.00810799 
-0.00774089 0.0251547 0.00902511 0.0297406 0.0275348 0.00992632 -0.00635937 0.0437259 0.00903779 
-0.00886614 -0.0452473 0.0148592 0.00640906 -0.045603 0.0105063 -0.0227468 -0.0400313 0.0108181 
-0.0154773 -0.0433216 0.0108255 0.000328594 -0.0404922 0.0106535 0.0144933 -0.0413194 0.0100761 
0.00790225 -0.036891 0.0107434 0.0229923 -0.039877 0.0108515 0.0296632 -0.0352168 0.0108019 
-0.0336441 -0.0314579 0.0116569 -0.0251613 -0.0324796 0.00999926 -0.0184751 -0.034123 0.0140104 
-0.0119005 -0.0318185 0.0101847 -0.00506554 -0.0332435 0.0139924 0.0149667 -0.0333534 0.01049 
0.0221713 -0.0325045 0.0137343 -0.0384616 -0.0253095 0.0103505 0.00573421 -0.029249 0.0116385 
0.0187486 -0.026364 0.0101754 0.0283064 -0.0272317 0.0137839 0.0352952 -0.0295671 0.0108149 
-0.0294051 -0.0248526 0.0105331 -0.022865 -0.0227211 0.0144324 -0.0126785 -0.0224776 0.0102294 
0.00115341 -0.0228578 0.0105219 0.0328483 -0.0214777 0.0107778 -0.0265046 -0.0165138 0.0109949 
-0.0186297 -0.0173158 0.0104419 -0.00510162 -0.0176379 0.010124 0.00240094 -0.0150284 0.0107012 
0.0105223 -0.0158853 0.0127493 0.0204383 -0.0186204 0.010191 0.0273815 -0.0162469 0.0132896 
-0.0449481 -0.010178 0.0141924 -0.0378497 -0.0135528 0.0149699 -0.00987062 -0.0104685 0.0101398 
0.0231101 -0.0100911 0.0104467 0.0370511 -0.0147105 0.0106937 0.0445055 -0.0119443 0.0108071 
-0.0274356 -0.00861333 0.0105216 0.0153607 -0.0086826 0.011246 0.0310112 -0.00955272 0.0109427 
0.0384713 -0.00684306 0.011323 -0.0395543 -0.00431074 0.0140978 -0.0331287 -0.000853699 0.0108838 
-0.0141136 -0.00375634 0.0106327 0.0100602 -0.00333973 0.0137738 0.0206784 -0.00192956 0.0107301 
0.0326115 -0.00158046 0.0104939 0.0458929 -0.0040696 0.0106601 -0.0392586 0.00359886 0.0149181 
-0.0185038 0.00291903 0.0106361 -0.00731757 0.000400321 0.0107217 0.0102621 0.00386061 0.0104543 
0.0264836 0.00349613 0.0103813 -0.0457344 0.00548544 0.0107733 -0.031555 0.00742512 0.0109259 
-0.0237093 0.00895338 0.0106545 -0.0118426 0.00640562 0.0132268 0.00342365 0.00797564 0.0104308 
0.017716 0.00664875 0.0101109 0.0339909 0.00622353 0.0102785 -0.0441617 0.01327 0.0107964 
-0.0363247 0.0137746 0.0108276 -0.00562349 0.010171 0.00999788 -0.000473148 0.0139934 0.014664 
0.0108393 0.0117663 0.0103372 0.0242631 0.0111515 0.0104639 0.0317431 0.0137523 0.0111379 
0.0394544 0.0120256 0.0102283 -0.0285762 0.0152221 0.010748 -0.00882086 0.017342 0.0113344 
0.00576249 0.0177102 0.0115645 0.0176807 0.0158176 0.0103017 0.0258618 0.0190209 0.010618 
0.0417567 0.0194743 0.0118679 -0.0410839 0.02073 0.0107874 -0.0335872 0.0207259 0.0135136 
-0.0153408 0.0232041 0.0100176 -0.00130821 0.0213803 0.0117638 0.019418 0.0236152 0.0105759 
-0.0369516 0.0275167 0.0109793 -0.024537 0.0251573 0.0106584 -0.00138001 0.0296774 0.0101745 
0.00537692 0.0257038 0.0112921 0.0123525 0.0297217 0.0101802 0.0374063 0.0269553 0.0118376 
-0.0316491 0.03345 0.0108716 -0.0237418 0.0330851 0.0103801 -0.0129396 0.0306105 0.0116074 
0.0225956 0.0314594 0.0111295 -0.0169673 0.0372556 0.00999209 -0.00678774 0.0355447 0.0104356 
0.000844175 0.0386998 0.0105449 0.00871656 0.0375382 0.0112588 0.0163663 0.0359742 0.012964 
0.0228464 0.0399759 0.0107007 0.0294513 0.0354321 0.0108295 -0.0136103 0.0440437 0.0122123 
0.0152175 0.0434855 0.0107894 -3.61644e-05 0.0460701 0.0132961 0.00746568 0.0454054 0.0107088 
0.000599363 -0.0460939 0.0162004 -0.022705 -0.0400704 0.0187543 -0.0155198 -0.0433673 0.018772 
0.00689674 -0.0413744 0.0172182 0.0144127 -0.0437677 0.017587 -0.0288525 -0.0359117 0.0160987 
-0.0115406 -0.0367688 0.0169004 -0.00404675 -0.0399313 0.01817 0.0159092 -0.03592 0.0179709 
0.0266679 -0.0376274 0.0176999 0.00235542 -0.0349848 0.016054 0.032764 -0.0323931 0.0178168 
-0.0371339 -0.0272069 0.0179702 -0.0286423 -0.0266942 0.0182521 -0.0156439 -0.0261691 0.016647 
-0.00483039 -0.0262168 0.0177512 0.00271084 -0.0279057 0.0195681 0.0119581 -0.0291362 0.0165244 
-0.0412138 -0.0206115 0.0161082 -0.0332649 -0.0204226 0.0164487 0.00668165 -0.0219743 0.016152 
0.0144824 -0.0216624 0.017621 0.0222323 -0.0230019 0.0165632 0.0386559 -0.0249734 0.0164076 
-0.0178868 -0.0181773 0.0186243 -0.0108745 -0.0163288 0.0154092 -0.00141565 -0.0191063 0.0169862 
0.0348053 -0.0181062 0.0176704 0.0425385 -0.0176453 0.0159441 -0.030237 -0.0126524 0.0168092 
-0.0223714 -0.0118025 0.0169995 -0.00336656 -0.0116242 0.0149993 0.00492938 -0.0145483 0.0182884 
0.0175392 -0.0144448 0.0162071 0.0448163 -0.0105478 0.0186496 -0.01482 -0.00944237 0.0162299 
0.00337448 -0.00736428 0.0154287 0.0113626 -0.0098653 0.0181219 0.0235029 -0.00886117 0.0182574 
0.033139 -0.00543028 0.0173926 -0.046064 -0.000291136 0.016228 -0.0288552 -0.00396514 0.016795 
-0.0210167 -0.00389326 0.0153582 -0.0131916 -0.00187122 0.018303 -0.00295918 -0.00279985 0.0165198 
0.0171054 -0.00418788 0.0174692 0.0262245 -0.00163475 0.0164092 0.0460251 -0.00272377 0.018471 
-0.0265503 0.00355691 0.0157381 -0.0195141 0.00283557 0.0192964 -0.00244228 0.00498305 0.0150612 
0.0050023 0.00245162 0.0162353 0.0122888 0.00182038 0.0193584 0.019955 0.00324292 0.0169322 
0.0387857 0.000168859 0.0173941 -0.0450336 0.00942018 0.017693 -0.0331566 0.00653912 0.0189403 
[...]
POINT_DATA 890
FIELD FieldData 9
id 1 890 int
328 395 635 139 347 203 196 236 800 
586 677 582 256 398 603 449 396 177 
871 806 739 153 532 627 810 477 860 
28 388 471 90 611 521 602 102 671 
169 740 351 190 666 39 145 249 120 
876 755 634 176 134 46 275 731 62 
11 119 833 385 329 189 702 199 830 
506 483 873 675 307 82 197 319 738 
538 654 657 473 159 274 450 327 174 
2 10 276 575 787 426 534 14 858 
138 180 432 531 418 224 278 724 842 
430 662 462 35 469 408 298 326 53 
89 349 706 4 742 641 416 546 859 
650 101 883 699 85 216 198 601 192 
874 323 759 333 696 230 520 625 401 
265 244 461 227 804 698 67 118 390 
594 440 242 886 37 596 231 376 179 
613 17 65 598 713 309 571 80 162 
284 97 52 692 429 206 111 59 630 
66 200 86 142 664 413 649 779 667 
674 113 33 879 341 884 411 553 862 
535 498 682 563 105 259 44 257 422 
250 659 530 570 849 50 708 182 482 
827 217 632 175 96 766 363 195 809 
140 653 317 816 228 689 672 508 16 
116 854 316 836 19 150 478 767 748 
222 869 123 405 680 795 41 258 38 
737 289 338 207 687 733 392 608 851 
690 409 776 467 778 218 167 358 526 
794 184 618 780 310 544 523 622 888 
758 221 799 268 393 70 103 386 76 
488 55 354 515 668 636 855 322 252 
215 141 599 348 253 588 366 606 676 
295 5 239 367 514 568 628 121 18 
350 679 541 821 262 383 797 619 375 
694 64 808 273 313 77 171 765 460 
229 796 715 431 47 503 791 269 771 
489 501 438 751 364 7 377 314 63 
726 707 623 399 420 519 365 652 545 
812 382 880 743 337 149 504 673 126 
110 243 56 612 318 824 479 499 640 
404 864 108 286 782 517 336 240 474 
370 651 343 848 237 30 480 729 21 
557 414 576 339 94 133 99 406 645 
585 292 223 811 464 448 749 847 87 
695 397 251 104 505 456 655 315 311 
609 22 308 92 558 281 136 29 331 
446 378 468 746 166 129 455 380 574 
578 547 254 727 844 597 114 428 881 
266 73 444 725 642 248 125 723 42 
870 419 802 722 669 290 210 638 721 
435 75 187 486 320 495 688 451 291 
417 700 373 271 803 424 757 280 701 
332 829 801 616 840 875 160 507 878 
407 205 736 882 605 433 297 445 164 
368 260 246 127 720 683 402 132 465 
12 463 852 107 660 510 850 188 761 
522 161 838 300 219 579 115 122 34 
793 615 572 648 334 381 705 714 285 
128 775 421 58 837 494 610 226 528 
362 559 61 691 518 734 148 845 744 
154 524 91 208 458 71 584 484 403 
466 556 26 670 491 637 36 457 352 
437 785 157 369 345 856 772 57 173 
550 529 83 374 238 43 452 853 644 
817 728 213 581 647 68 40 423 885 
475 788 335 857 537 209 562 25 1 
212 798 288 470 681 72 360 88 186 
357 770 502 106 711 747 492 626 600 
6 820 124 569 69 54 865 784 774 
454 513 344 321 255 325 867 294 389 
709 684 819 245 211 685 567 697 191 
283 135 777 735 591 202 573 117 84 
604 866 704 45 193 490 359 527 493 
340 552 394 263 78 346 225 629 763 
178 826 3 877 439 589 220 8 272 
306 442 583 20 436 487 590 686 716 
789 9 658 481 756 270 564 15 863 
807 633 23 305 264 112 718 384 233 
561 754 790 303 500 304 764 631 768 
425 98 781 663 509 516 678 330 580 
355 302 361 282 427 533 342 185 434 
732 485 593 301 511 496 27 717 656 
183 412 146 100 889 170 745 24 312 
158 786 371 815 296 277 299 551 201 
643 540 165 555 752 130 549 400 441 
621 93 81 247 624 512 324 560 459 
773 156 168 565 805 109 261 172 443 
476 753 356 887 143 372 241 95 769 
163 415 147 890 822 391 144 79 548 
204 762 410 665 49 646 279 741 194 
267 710 543 818 453 542 839 750 577 
51 719 155 353 48 831 137 843 592 
828 214 235 614 287 872 539 234 703 
814 832 595 60 712 661 497 447 834 
868 181 792 536 760 151 566 617 823 
693 620 841 730 861 32 825 13 472 
379 131 587 846 813 783 639 31 232 
74 293 607 525 387 152 835 554 
type 1 890 int
1 1 1 1 1 1 1 1 1 
1 1 1 1 1 1 1 1 1 
1 1 1 1 1 1 1 1 1 
1 1 1 1 1 1 1 1 1 
1 1 1 1 1 1 1 1 1 
1 1 1 1 1 1 1 1 1 
1 1 1 1 1 1 1 1 1 
1 1 1 1 1 1 1 1 1 
1 1 1 1 1 1 1 1 1 
1 1 1 1 1 1 1 1 1 
1 1 1 1 1 1 1 1 1 
1 1 1 1 1 1 1 1 1 
1 1 1 1 1 1 1 1 1 
1 1 1 1 1 1 1 1 1 
1 1 1 1 1 1 1 1 1 
1 1 1 1 1 1 1 1 1 
1 1 1 1 1 1 1 1 1 
1 1 1 1 1 1 1 1 1 
1 1 1 1 1 1 1 1 1 
1 1 1 1 1 1 1 1 1 
1 1 1 1 1 1 1 1 1 
1 1 1 1 1 1 1 1 1 
1 1 1 1 1 1 1 1 1 
1 1 1 1 1 1 1 1 1 
1 1 1 1 1 1 1 1 1 
1 1 1 1 1 1 1 1 1 
1 1 1 1 1 1 1 1 1 
1 1 1 1 1 1 1 1 1 
1 1 1 1 1 1 1 1 1 
1 1 1 1 1 1 1 1 1 
1 1 1 1 1 1 1 1 1 
1 1 1 1 1 1 1 1 1 
1 1 1 1 1 1 1 1 1 
1 1 1 1 1 1 1 1 1 
1 1 1 1 1 1 1 1 1 
1 1 1 1 1 1 1 1 1 
1 1 1 1 1 1 1 1 1 
1 1 1 1 1 1 1 1 1 
1 1 1 1 1 1 1 1 1 
1 1 1 1 1 1 1 1 1 
1 1 1 1 1 1 1 1 1 
1 1 1 1 1 1 1 1 1 
1 1 1 1 1 1 1 1 1 
1 1 1 1 1 1 1 1 1 
1 1 1 1 1 1 1 1 1 
1 1 1 1 1 1 1 1 1 
1 1 1 1 1 1 1 1 1 
1 1 1 1 1 1 1 1 1 
1 1 1 1 1 1 1 1 1 
1 1 1 1 1 1 1 1 1 
1 1 1 1 1 1 1 1 1 
1 1 1 1 1 1 1 1 1 
1 1 1 1 1 1 1 1 1 
1 1 1 1 1 1 1 1 1 
1 1 1 1 1 1 1 1 1 
1 1 1 1 1 1 1 1 1 
1 1 1 1 1 1 1 1 1 
1 1 1 1 1 1 1 1 1 
1 1 1 1 1 1 1 1 1 
1 1 1 1 1 1 1 1 1 
1 1 1 1 1 1 1 1 1 
1 1 1 1 1 1 1 1 1 
1 1 1 1 1 1 1 1 1 
1 1 1 1 1 1 1 1 1 
1 1 1 1 1 1 1 1 1 
1 1 1 1 1 1 1 1 1 
1 1 1 1 1 1 1 1 1 
1 1 1 1 1 1 1 1 1 
1 1 1 1 1 1 1 1 1 
1 1 1 1 1 1 1 1 1 
1 1 1 1 1 1 1 1 1 
1 1 1 1 1 1 1 1 1 
1 1 1 1 1 1 1 1 1 
1 1 1 1 1 1 1 1 1 
1 1 1 1 1 1 1 1 1 
1 1 1 1 1 1 1 1 1 
1 1 1 1 1 1 1 1 1 
1 1 1 1 1 1 1 1 1 
1 1 1 1 1 1 1 1 1 
1 1 1 1 1 1 1 1 1 
1 1 1 1 1 1 1 1 1 
1 1 1 1 1 1 1 1 1 
1 1 1 1 1 1 1 1 1 
1 1 1 1 1 1 1 1 1 
1 1 1 1 1 1 1 1 1 
1 1 1 1 1 1 1 1 1 
1 1 1 1 1 1 1 1 1 
1 1 1 1 1 1 1 1 1 
1 1 1 1 1 1 1 1 1 
1 1 1 1 1 1 1 1 1 
1 1 1 1 1 1 1 1 1 
1 1 1 1 1 1 1 1 1 
1 1 1 1 1 1 1 1 1 
1 1 1 1 1 1 1 1 1 
1 1 1 1 1 1 1 1 1 
1 1 1 1 1 1 1 1 1 
1 1 1 1 1 1 1 1 1 
1 1 1 1 1 1 1 1 1 
1 1 1 1 1 1 1 1 
i 3 890 int
0 0 0 0 0 0 0 0 0 
0 0 0 0 0 0 0 0 0 
0 0 0 0 0 0 0 0 0 
0 0 0 0 0 0 0 0 0 
0 0 0 0 0 0 0 0 0 
0 0 0 0 0 0 0 0 0 
0 0 0 0 0 0 0 0 0 
0 0 0 0 0 0 0 0 0 
0 0 0 0 0 0 0 0 0 
0 0 0 0 0 0 0 0 0 
0 0 0 0 0 0 0 0 0 
0 0 0 0 0 0 0 0 0 
0 0 0 0 0 0 0 0 0 
0 0 0 0 0 0 0 0 0 
0 0 0 0 0 0 0 0 0 
0 0 0 0 0 0 0 0 0 
0 0 0 0 0 0 0 0 0 
0 0 0 0 0 0 0 0 0 
0 0 0 0 0 0 0 0 0 
0 0 0 0 0 0 0 0 0 
0 0 0 0 0 0 0 0 0 
0 0 0 0 0 0 0 0 0 
0 0 0 0 0 0 0 0 0 
0 0 0 0 0 0 0 0 0 
0 0 0 0 0 0 0 0 0 
0 0 0 0 0 0 0 0 0 
0 0 0 0 0 0 0 0 0 
0 0 0 0 0 0 0 0 0 
0 0 0 0 0 0 0 0 0 
0 0 0 0 0 0 0 0 0 
0 0 0 0 0 0 0 0 0 
0 0 0 0 0 0 0 0 0 
0 0 0 0 0 0 0 0 0 
0 0 0 0 0 0 0 0 0 
0 0 0 0 0 0 0 0 0 
0 0 0 0 0 0 0 0 0 
0 0 0 0 0 0 0 0 0 
0 0 0 0 0 0 0 0 0 
0 0 0 0 0 0 0 0 0 
0 0 0 0 0 0 0 0 0 
0 0 0 0 0 0 0 0 0 
0 0 0 0 0 0 0 0 0 
0 0 0 0 0 0 0 0 0 
0 0 0 0 0 0 0 0 0 
0 0 0 0 0 0 0 0 0 
0 0 0 0 0 0 0 0 0 
0 0 0 0 0 0 0 0 0 
0 0 0 0 0 0 0 0 0 
0 0 0 0 0 0 0 0 0 
0 0 0 0 0 0 0 0 0 
0 0 0 0 0 0 0 0 0 
0 0 0 0 0 0 0 0 0 
0 0 0 0 0 0 0 0 0 
0 0 0 0 0 0 0 0 0 
0 0 0 0 0 0 0 0 0 
0 0 0 0 0 0 0 0 0 
0 0 0 0 0 0 0 0 0 
0 0 0 0 0 0 0 0 0 
0 0 0 0 0 0 0 0 0 
0 0 0 0 0 0 0 0 0 
0 0 0 0 0 0 0 0 0 
0 0 0 0 0 0 0 0 0 
0 0 0 0 0 0 0 0 0 
0 0 0 0 0 0 0 0 0 
0 0 0 0 0 0 0 0 0 
0 0 0 0 0 0 0 0 0 
0 0 0 0 0 0 0 0 0 
0 0 0 0 0 0 0 0 0 
0 0 0 0 0 0 0 0 0 
0 0 0 0 0 0 0 0 0 
0 0 0 0 0 0 0 0 0 
0 0 0 0 0 0 0 0 0 
0 0 0 0 0 0 0 0 0 
0 0 0 0 0 0 0 0 0 
0 0 0 0 0 0 0 0 0 
0 0 0 0 0 0 0 0 0 
0 0 0 0 0 0 0 0 0 
0 0 0 0 0 0 0 0 0 
0 0 0 0 0 0 0 0 0 
0 0 0 0 0 0 0 0 0 
0 0 0 0 0 0 0 0 0 
0 0 0 0 0 0 0 0 0 
0 0 0 0 0 0 0 0 0 
0 0 0 0 0 0 0 0 0 
0 0 0 0 0 0 0 0 0 
0 0 0 0 0 0 0 0 0 
0 0 0 0 0 0 0 0 0 
0 0 0 0 0 0 0 0 0 
0 0 0 0 0 0 0 0 0 
0 0 0 0 0 0 0 0 0 
0 0 0 0 0 0 0 0 0 
0 0 0 0 0 0 0 0 0 
0 0 0 0 0 0 0 0 0 
0 0 0 0 0 0 0 0 0 
0 0 0 0 0 0 0 0 0 
0 0 0 0 0 0 0 0 0 
0 0 0 0 0 0 0 0 0 
0 0 0 0 0 0 0 0 0 
0 0 0 0 0 0 0 0 0 
0 0 0 0 0 0 0 0 0 
0 0 0 0 0 0 0 0 0 
0 0 0 0 0 0 0 0 0 
0 0 0 0 0 0 0 0 0 
0 0 0 0 0 0 0 0 0 
0 0 0 0 0 0 0 0 0 
0 0 0 0 0 0 0 0 0 
0 0 0 0 0 0 0 0 0 
0 0 0 0 0 0 0 0 0 
0 0 0 0 0 0 0 0 0 
0 0 0 0 0 0 0 0 0 
0 0 0 0 0 0 0 0 0 
0 0 0 0 0 0 0 0 0 
0 0 0 0 0 0 0 0 0 
0 0 0 0 0 0 0 0 0 
0 0 0 0 0 0 0 0 0 
0 0 0 0 0 0 0 0 0 
0 0 0 0 0 0 0 0 0 
0 0 0 0 0 0 0 0 0 
0 0 0 0 0 0 0 0 0 
0 0 0 0 0 0 0 0 0 
0 0 0 0 0 0 0 0 0 
0 0 0 0 0 0 0 0 0 
0 0 0 0 0 0 0 0 0 
0 0 0 0 0 0 0 0 0 
0 0 0 0 0 0 0 0 0 
0 0 0 0 0 0 0 0 0 
0 0 0 0 0 0 0 0 0 
0 0 0 0 0 0 0 0 0 
0 0 0 0 0 0 0 0 0 
0 0 0 0 0 0 0 0 0 
0 0 0 0 0 0 0 0 0 
0 0 0 0 0 0 0 0 0 
0 0 0 0 0 0 0 0 0 
0 0 0 0 0 0 0 0 0 
0 0 0 0 0 0 0 0 0 
0 0 0 0 0 0 0 0 0 
0 0 0 0 0 0 0 0 0 
0 0 0 0 0 0 0 0 0 
0 0 0 0 0 0 0 0 0 
0 0 0 0 0 0 0 0 0 
0 0 0 0 0 0 0 0 0 
0 0 0 0 0 0 0 0 0 
0 0 0 0 0 0 0 0 0 
0 0 0 0 0 0 0 0 0 
0 0 0 0 0 0 0 0 0 
0 0 0 0 0 0 0 0 0 
0 0 0 0 0 0 0 0 0 
0 0 0 0 0 0 0 0 0 
0 0 0 0 0 0 0 0 0 
0 0 0 0 0 0 0 0 0 
0 0 0 0 0 0 0 0 0 
0 0 0 0 0 0 0 0 0 
0 0 0 0 0 0 0 0 0 
0 0 0 0 0 0 0 0 0 
0 0 0 0 0 0 0 0 0 
0 0 0 0 0 0 0 0 0 
0 0 0 0 0 0 0 0 0 
0 0 0 0 0 0 0 0 0 
0 0 0 0 0 0 0 0 0 
0 0 0 0 0 0 0 0 0 
0 0 0 0 0 0 0 0 0 
0 0 0 0 0 0 0 0 0 
0 0 0 0 0 0 0 0 0 
0 0 0 0 0 0 0 0 0 
0 0 0 0 0 0 0 0 0 
0 0 0 0 0 0 0 0 0 
0 0 0 0 0 0 0 0 0 
0 0 0 0 0 0 0 0 0 
0 0 0 0 0 0 0 0 0 
0 0 0 0 0 0 0 0 0 
0 0 0 0 0 0 0 0 0 
0 0 0 0 0 0 0 0 0 
0 0 0 0 0 0 0 0 0 
0 0 0 0 0 0 0 0 0 
0 0 0 0 0 0 0 0 0 
0 0 0 0 0 0 0 0 0 
0 0 0 0 0 0 0 0 0 
0 0 0 0 0 0 0 0 0 
0 0 0 0 0 0 0 0 0 
0 0 0 0 0 0 0 0 0 
0 0 0 0 0 0 0 0 0 
0 0 0 0 0 0 0 0 0 
0 0 0 0 0 0 0 0 0 
0 0 0 0 0 0 0 0 0 
0 0 0 0 0 0 0 0 0 
0 0 0 0 0 0 0 0 0 
0 0 0 0 0 0 0 0 0 
0 0 0 0 0 0 0 0 0 
0 0 0 0 0 0 0 0 0 
0 0 0 0 0 0 0 0 0 
0 0 0 0 0 0 0 0 0 
0 0 0 0 0 0 0 0 0 
0 0 0 0 0 0 0 0 0 
0 0 0 0 0 0 0 0 0 
0 0 0 0 0 0 0 0 0 
0 0 0 0 0 0 0 0 0 
0 0 0 0 0 0 0 0 0 
0 0 0 0 0 0 0 0 0 
0 0 0 0 0 0 0 0 0 
0 0 0 0 0 0 0 0 0 
0 0 0 0 0 0 0 0 0 
0 0 0 0 0 0 0 0 0 
0 0 0 0 0 0 0 0 0 
0 0 0 0 0 0 0 0 0 
0 0 0 0 0 0 0 0 0 
0 0 0 0 0 0 0 0 0 
0 0 0 0 0 0 0 0 0 
0 0 0 0 0 0 0 0 0 
0 0 0 0 0 0 0 0 0 
0 0 0 0 0 0 0 0 0 
0 0 0 0 0 0 0 0 0 
0 0 0 0 0 0 0 0 0 
0 0 0 0 0 0 0 0 0 
0 0 0 0 0 0 0 0 0 
0 0 0 0 0 0 0 0 0 
0 0 0 0 0 0 0 0 0 
0 0 0 0 0 0 0 0 0 
0 0 0 0 0 0 0 0 0 
0 0 0 0 0 0 0 0 0 
0 0 0 0 0 0 0 0 0 
0 0 0 0 0 0 0 0 0 
0 0 0 0 0 0 0 0 0 
0 0 0 0 0 0 0 0 0 
0 0 0 0 0 0 0 0 0 
0 0 0 0 0 0 0 0 0 
0 0 0 0 0 0 0 0 0 
0 0 0 0 0 0 0 0 0 
0 0 0 0 0 0 0 0 0 
0 0 0 0 0 0 0 0 0 
0 0 0 0 0 0 0 0 0 
0 0 0 0 0 0 0 0 0 
0 0 0 0 0 0 0 0 0 
0 0 0 0 0 0 0 0 0 
0 0 0 0 0 0 0 0 0 
0 0 0 0 0 0 0 0 0 
0 0 0 0 0 0 0 0 0 
0 0 0 0 0 0 0 0 0 
0 0 0 0 0 0 0 0 0 
0 0 0 0 0 0 0 0 0 
0 0 0 0 0 0 0 0 0 
0 0 0 0 0 0 0 0 0 
0 0 0 0 0 0 0 0 0 
0 0 0 0 0 0 0 0 0 
0 0 0 0 0 0 0 0 0 
0 0 0 0 0 0 0 0 0 
0 0 0 0 0 0 0 0 0 
0 0 0 0 0 0 0 0 0 
0 0 0 0 0 0 0 0 0 
0 0 0 0 0 0 0 0 0 
0 0 0 0 0 0 0 0 0 
0 0 0 0 0 0 0 0 0 
0 0 0 0 0 0 0 0 0 
0 0 0 0 0 0 0 0 0 
0 0 0 0 0 0 0 0 0 
0 0 0 0 0 0 0 0 0 
0 0 0 0 0 0 0 0 0 
0 0 0 0 0 0 0 0 0 
0 0 0 0 0 0 0 0 0 
0 0 0 0 0 0 0 0 0 
0 0 0 0 0 0 0 0 0 
0 0 0 0 0 0 0 0 0 
0 0 0 0 0 0 0 0 0 
0 0 0 0 0 0 0 0 0 
0 0 0 0 0 0 0 0 0 
0 0 0 0 0 0 0 0 0 
0 0 0 0 0 0 0 0 0 
0 0 0 0 0 0 0 0 0 
0 0 0 0 0 0 0 0 0 
0 0 0 0 0 0 0 0 0 
0 0 0 0 0 0 0 0 0 
0 0 0 0 0 0 0 0 0 
0 0 0 0 0 0 0 0 0 
0 0 0 0 0 0 0 0 0 
0 0 0 0 0 0 0 0 0 
0 0 0 0 0 0 0 0 0 
0 0 0 0 0 0 0 0 0 
0 0 0 0 0 0 0 0 0 
0 0 0 0 0 0 0 0 0 
0 0 0 0 0 0 0 0 0 
0 0 0 0 0 0 0 0 0 
0 0 0 0 0 0 0 0 0 
0 0 0 0 0 0 0 0 0 
0 0 0 0 0 0 0 0 0 
0 0 0 0 0 0 0 0 0 
0 0 0 0 0 0 0 0 0 
0 0 0 0 0 0 0 0 0 
0 0 0 0 0 0 0 0 0 
0 0 0 0 0 0 0 0 0 
0 0 0 0 0 0 0 0 0 
0 0 0 0 0 0 0 0 0 
0 0 0 0 0 0 0 0 0 
0 0 0 0 0 0 0 0 0 
0 0 0 0 0 0 0 0 0 
0 0 0 0 0 0 0 0 0 
0 0 0 0 0 0 0 0 0 
0 0 0 0 0 0 0 0 0 
0 0 0 0 0 0 
v 3 890 double
-0.00226813 0.000287368 4.39246e-05 -0.00128999 0.00097946 -0.00178238 -0.00116738 2.65954e-06 -0.00223376 
-0.00110552 -0.000216913 -0.000630417 -0.000903252 -0.000417831 -0.00155795 -0.0014599 -0.000260228 -0.00143983 
-0.00119927 0.000564322 -0.00137804 -0.00242702 0.000919915 -0.000301897 -0.0038482 0.00220138 0.000106539 
-0.00295101 0.000492799 -0.00164868 -0.000484993 0.000157712 0.000631696 0.00016491 -0.000322547 0.000771959 
-0.00158632 -0.000781335 -0.000658819 -0.000643932 3.43661e-05 -0.00148678 -0.000882585 0.00107258 -0.00110875 
-0.000675684 -0.00238259 -0.00140752 0.00183827 0.00137132 -0.00334339 0.00104947 0.00020063 0.000860849 
0.000153864 -0.000727423 0.000731022 -0.00129023 -0.00231573 -0.000458358 0.000478744 0.000591321 -0.000742805 
0.000375397 -0.00171241 -2.65156e-05 0.00316741 0.00321506 -0.00176521 0.000328635 0.0001568 0.00066047 
-0.00106932 -0.00204867 0.000971861 -0.00246596 -0.000372811 -5.33332e-05 3.20734e-06 0.000952663 -0.000110399 
0.00140105 -0.00845174 -0.000807118 0.00330108 0.00199582 -0.000983305 0.00138085 -0.00105119 0.00126415 
-0.00166862 -0.0023914 5.19356e-05 -0.00148618 0.0015708 0.000266104 -0.000200931 8.96775e-05 0.000695362 
-0.000225162 -0.000753776 -0.000275144 0.00146164 0.000517095 -0.000974835 0.00260495 0.00282673 -0.00135741 
0.00145452 0.000917084 -0.000298346 0.000266686 -0.00046905 0.00141488 -0.000120812 -0.000568032 0.00241891 
-0.000575944 -0.00228629 0.00244295 -0.000234288 -0.00237916 0.00144332 0.00634599 0.0112277 0.00101495 
0.00057978 -0.00172935 0.000463324 0.00110072 -0.000730858 -0.000241279 0.00119023 0.00169937 -0.00154204 
0.000615466 -0.00246815 0.00343326 0.00582489 -0.00320959 0.00411467 0.00771444 0.00513437 0.000775105 
0.000639629 -0.000386637 -0.000752466 0.000815313 -0.000665148 -0.00225608 0.000498752 0.000572458 -0.000529784 
0.00170035 -0.00218323 0.00206273 0.00179131 -0.00161775 0.00235691 -0.00494672 0.00361981 0.000373458 
-0.00337604 0.0043773 -0.000420867 0.00331599 -0.00272007 4.86905e-05 -0.000482897 -0.000334187 -0.00208025 
0.000429976 0.00148619 -0.0013922 0.000814506 0.000201546 0.00126012 0.000279225 -0.00109166 0.000668408 
-0.00109918 0.000731958 0.00277864 -0.00142633 0.00352502 -0.000167304 -0.00234746 -0.00105126 0.000311138 
0.00126289 -0.00181984 -0.000299213 0.000929064 0.000678975 -0.00181282 -0.000259441 0.020668 -0.00137141 
0.000415014 0.000223316 0.00102038 0.0011438 -0.0014629 0.00114173 -0.000928486 0.00260279 0.00191631 
0.00162531 -0.00339986 -0.000535842 0.00131599 0.000484285 -0.00176757 0.000485123 0.000410838 -0.0019278 
-0.000458083 0.00133159 -0.00202812 0.00098543 -0.000456151 -0.000298044 0.00015651 0.000748266 0.0028821 
-0.000848772 0.00278886 0.00196783 0.000702078 -0.00156892 -0.000367209 0.000978266 2.11616e-05 -0.000783711 
0.000495063 0.000450676 -0.000803823 -0.000966378 0.00143414 -0.00179273 0.000247235 0.000708962 -0.00226803 
-8.77462e-05 0.000161073 0.000235933 -0.000348517 0.000133982 -0.000582883 0.000898635 0.000513856 0.000561425 
-0.00220834 0.00110604 0.000249741 -0.00286577 0.00255776 0.000533135 -0.00191116 -0.00163967 -0.0026581 
0.000996713 -0.00055247 1.69615e-05 -0.00148088 -0.000465558 0.00032733 0.000372218 -5.53585e-05 -0.00086148 
-0.0018122 -0.00124572 -0.000907386 8.2663e-05 0.0022834 -0.000730991 -0.00030778 -0.00203441 -0.000703257 
0.000516342 -0.000281235 0.000260012 -0.00099538 0.00118695 -0.00115928 -0.000730971 0.00178436 -5.74602e-05 
1.22776e-05 -0.000136363 -0.00198885 0.000416643 0.00107677 0.000927372 0.00101862 -0.00235645 0.000765266 
0.000603809 0.000415808 -0.000714695 -0.000291059 7.46887e-06 -0.00143496 -0.00100783 0.000673689 -0.000198206 
-0.00103662 0.00466412 -0.000627409 -0.000275671 -0.000391154 -0.00124674 0.00215908 -0.0015013 -0.00148825 
0.00303186 -3.2921e-05 -8.491e-05 0.000826292 -0.000758096 0.000232937 0.00181965 0.00120149 -0.00115054 
-0.0040296 0.00110593 -0.000462664 -0.00184916 0.00421538 -0.000857461 0.00290963 -0.00045079 -0.00133237 
0.000691564 0.00128077 -0.000656183 0.000726081 0.000966161 -0.000540592 0.00273832 -0.00139641 0.000169892 
0.00344876 -0.00190371 -0.000870009 0.00551686 -0.00131378 -0.00293262 0.00373278 -0.000377026 -0.000604472 
-0.00232302 0.000788525 -0.00190947 -0.00364531 0.000290442 -0.00206762 -0.000340414 0.00163492 4.73568e-05 
0.000680111 -0.00281171 0.000134273 0.00110005 0.000617548 -0.000220468 0.00101302 -0.00148663 -0.00853953 
0.00118878 -0.00224668 0.000281948 0.00161579 0.00199249 -0.000653591 -0.000165435 -0.000331356 0.00155775 
0.0023572 -5.51835e-05 0.00173505 0.00029859 -0.00030105 0.00418797 0.00107268 -0.00635586 0.00170126 
0.00418545 0.00606193 -0.00406196 0.00544618 -0.00144839 0.00298215 0.000273613 0.000301329 0.00233989 
0.00180799 -0.00200091 0.00432129 0.0047889 0.00530032 -0.00189243 0.00313315 -0.00158968 0.00368199 
0.00145898 0.000422943 -0.00345183 0.000105135 0.000650247 -0.00364848 0.000671731 -0.00186866 -0.0074286 
-0.0016567 0.000730704 0.00469658 3.43224e-05 0.00161275 0.00182255 -0.00449914 -0.00409877 -0.0077154 
-0.00106402 0.000568085 -0.00193905 -0.000518469 -0.000510488 -0.00152038 0.000809212 0.000333189 -0.00128765 
-0.000648329 0.00401572 -0.00169743 0.00145 -0.000525968 0.000912513 0.00173032 0.00570768 -0.00448034 
-0.00397566 -0.000321522 -0.0025011 -0.00155734 -0.000400442 -0.000413374 7.1149e-05 0.00289493 -0.0051213 
-0.00020934 0.00197982 -0.00360582 -0.000636209 0.00142647 -0.000849527 -0.00196701 0.00195585 -0.00320977 
-0.000586268 0.00123157 0.000725979 -0.0021449 -0.00407796 -0.000783873 0.00388762 0.00216818 -0.00200613 
-0.00171405 0.00175926 0.00132165 -0.00300124 0.00115933 -0.000944942 -0.00431603 0.00213262 0.0059253 
-0.00314442 0.00126184 0.00573441 0.00093297 -0.000639244 -0.00231551 -0.0023986 0.00267858 -0.00341957 
0.00120133 -0.000790363 -0.00667939 0.000219833 0.000638186 0.00042013 0.00209561 0.00405357 -0.000622239 
-0.000695895 0.00104662 0.00118384 0.000354186 0.00129786 -0.00977699 0.00205153 0.00189859 -0.00499987 
0.00127564 0.000886831 0.00284029 0.0031002 -0.00641868 0.00450017 0.000881647 -0.00238239 -0.00137425 
-0.000179066 0.0021198 -0.00078161 0.00286352 0.00337819 -0.00329109 -0.00316951 -0.00817706 0.00757383 
-0.00105056 -0.00658515 0.00160694 -0.0053645 0.0055304 -0.00219804 -0.00527818 0.00381592 -0.0172414 
0.00897888 -0.0024127 0.000737024 0.0145376 -0.00229995 -0.000146193 0.00796682 -9.32047e-05 0.00976675 
-0.000410316 0.00013195 0.00195204 -0.00148375 0.000785544 0.00461381 0.0108702 0.00345022 0.00764096 
0.00350766 -0.00419846 -0.00132436 0.00267576 0.00208347 -0.00134896 0.00047427 0.000701546 0.000572185 
3.7355e-05 -0.00523072 0.00563254 0.00465704 0.0048696 -0.00216331 0.00237881 -0.00130998 -0.0039376 
0.000729743 0.000553244 -0.00260979 0.000264998 0.00143571 0.00413519 0.00199047 -0.00285334 0.00593853 
-0.00130599 -0.00357037 -0.00172231 0.000844514 0.00103443 -0.000681242 2.89949e-05 0.000100922 -0.0022577 
0.000616891 -0.00051065 -0.00396389 -9.11656e-05 0.00100652 -0.00239671 -0.00444315 0.00219274 0.00591552 
-0.000279561 0.000627713 0.00183845 -0.0028608 0.00121398 -0.00128245 0.00330158 -0.000689925 -0.00291491 
0.000397297 2.22025e-05 -0.00308435 -0.00107919 -0.000326178 0.00137033 0.00469086 0.00377491 -0.00139444 
-0.0014998 0.000136843 0.00485529 -0.00259024 -0.00104889 0.00534666 0.000728994 -0.00291728 -0.000742498 
0.00190777 0.00377383 -0.0046601 0.000155417 1.58769e-05 -0.00268319 0.000943339 0.000125205 0.00268458 
0.000283387 -0.000488485 -0.000248106 -0.00224136 -0.00411896 -0.000645766 -0.00048626 -0.00571101 -0.00493826 
0.00164765 -0.000490176 -0.0016145 0.00178566 0.00222085 -0.000958091 0.00150046 0.00120827 -0.000844792 
0.000402692 -0.000654665 -0.00511365 -1.07432e-05 0.00125754 -0.0011934 0.00148151 0.000510751 0.00254763 
-0.00212711 -0.00314394 -0.0058462 0.00416305 -0.00232633 0.000624076 -1.84748e-05 0.000228617 -6.9777e-06 
-2.17225e-05 0.000134603 -0.00169211 -0.00161827 -0.000835466 0.000525602 -0.00107349 0.000866776 -0.00254279 
0.000239329 0.00103133 0.000315143 -0.00266283 -0.00446383 -0.00891548 -0.000275628 0.00071095 0.00114403 
-0.00105812 -0.000211311 -0.00169611 -0.00237097 0.0012814 -0.00395209 -0.000472017 0.00296078 -0.00133504 
-0.00349523 -0.00216632 -0.00635601 0.00111264 -0.00165467 -0.0023181 0.000514384 0.000331012 -0.00150007 
-0.000594147 -0.0013835 -0.00117516 -0.00136777 -0.00189345 -0.000381414 -0.00287641 0.00362404 -0.0107031 
0.00542338 -0.00519218 0.00234277 -0.00296039 0.00245146 -0.00179907 -0.00264891 0.00329516 -0.00193076 
-2.4162e-05 -0.00137622 -0.000714237 0.00314262 -0.00401673 -0.00418524 0.00660551 -0.00406569 -0.00519927 
0.00579354 -0.0019123 -0.00316463 0.0020482 -0.000433842 -0.000817443 -0.00111972 0.000961546 -0.00219178 