# vtk DataFile Version 4.0
Generated by LIGGGHTS
ASCII
DATASET POLYDATA
POINTS 890 float
0.0018476 -0.0460985 0.00392776 -0.0191263 -0.0418955 0.00390951 -0.0114823 -0.0445426 0.00393092 
0.010522 -0.0448208 0.00392589 0.019185 -0.041824 0.00395741 -0.0260422 -0.0379506 0.00394592 
-0.0131181 -0.0367328 0.0039003 -0.00332813 -0.0392504 0.00390771 0.00459069 -0.0387718 0.00390726 
0.0123346 -0.0370703 0.00395081 0.0262385 -0.0378575 0.00395256 -0.0321824 -0.0329107 0.0039598 
-0.0199619 -0.0327952 0.00389653 -0.0067169 -0.0320466 0.00394988 0.00687838 -0.031257 0.00393766 
0.0195064 -0.0336879 0.00386982 0.032343 -0.0327315 0.00392839 -0.0339797 -0.0251752 0.00393371 
-0.0258764 -0.027467 0.00390542 -0.0136478 -0.027673 0.0039361 -0.00109063 -0.0264376 0.00389673 
0.0136084 -0.027054 0.00391437 0.0374964 -0.0266942 0.0038985 -0.0408573 -0.0212393 0.00393921 
-0.0201066 -0.0217498 0.00394333 -0.0078421 -0.0217706 0.0038595 0.00628557 -0.0234019 0.00397835 
0.0218107 -0.0228244 0.00395111 0.0297892 -0.024462 0.00388873 -0.0278401 -0.0197979 0.00393197 
-0.0139569 -0.0166775 0.00399801 -0.000614731 -0.0184808 0.00397325 0.0067562 -0.0155451 0.00394617 
0.0140594 -0.0189692 0.00396639 0.0355142 -0.0189642 0.00391158 0.0430274 -0.0163054 0.00393784 
-0.0381749 -0.0137173 0.00385806 -0.0303392 -0.0122448 0.00398569 -0.0222474 -0.0141033 0.00396696 
-0.00635792 -0.0129353 0.00388501 0.00104426 -0.0100371 0.00391705 0.0132175 -0.0110215 0.00388685 
0.0205132 -0.0142954 0.00392895 0.034769 -0.0110719 0.00397491 -0.0450278 -0.00978816 0.00393919 
-0.0234919 -0.00625918 0.00388117 -0.0149201 -0.00878531 0.00391276 0.0196322 -0.00640575 0.00389502 
0.0273054 -0.00834893 0.00392177 0.0452322 -0.00852797 0.00390602 -0.0392086 -0.00435427 0.00396099 
-0.0312352 -0.00434478 0.00397838 -0.0174207 -0.00111956 0.00393144 -0.00878223 -0.00375855 0.0039587 
-0.00161807 -0.000225248 0.0039707 0.00836588 -0.00354122 0.00389713 0.0302814 -0.000955742 0.00393641 
0.0385914 -0.00412153 0.00389583 0.0459021 -0.000276461 0.00398114 -0.0460532 0.00138528 0.00388888 
-0.0313886 0.00359541 0.00394457 -0.00828405 0.00416114 0.00393422 0.00560542 0.00386614 0.00392683 
0.0222868 0.0031486 0.00389856 -0.0450778 0.0092854 0.00392697 -0.0235972 0.00518069 0.00392121 
-0.0157922 0.00666408 0.00396094 -0.0012762 0.00783093 0.0038901 0.0129486 0.00728785 0.00391391 
0.0300004 0.00700582 0.00391398 0.0390061 0.00617471 0.00394931 -0.0371798 0.0104037 0.0039273 
-0.0291015 0.011201 0.00392989 -0.0209152 0.0127103 0.00393824 -0.00984466 0.011948 0.00392187 
0.00641033 0.0117798 0.00396096 0.0200793 0.0108937 0.00391205 0.0272599 0.0144508 0.00398405 
0.0351734 0.0134697 0.00389329 0.0444499 0.0120109 0.00390303 -0.0426483 0.0168918 0.00395662 
-0.0344226 0.0178663 0.00395235 -0.026159 0.0186436 0.00391116 -0.0142519 0.0185607 0.00396055 
-0.00606239 0.0189177 0.00390405 0.00540491 0.0196641 0.00393203 0.0135107 0.0153932 0.00390098 
0.0209599 0.0192875 0.00396628 0.0417097 0.0194504 0.00397939 -0.0390029 0.0244191 0.0039083 
-0.0201748 0.0239238 0.00392779 -0.000685329 0.0247807 0.00394417 0.0283529 0.0223275 0.00391328 
-0.0130733 0.0275356 0.00389953 0.00878342 0.0268552 0.00389609 0.0167361 0.0260196 0.00387262 
0.0252542 0.0296388 0.00386369 0.0377838 0.0263328 0.00388969 -0.0342333 0.0308339 0.00390854 
-0.0262792 0.0301281 0.00389421 -0.0188325 0.0329659 0.00388593 -0.00588172 0.030869 0.003911 
0.00275322 0.0320631 0.00395085 0.0105364 0.0346144 0.0039683 0.0184486 0.0337701 0.00398042 
0.0327026 0.0324035 0.00421921 -0.0258838 0.0380804 0.0039944 -0.0112689 0.0366951 0.00393741 
-0.00324617 0.0383714 0.00385932 0.00453905 0.0398392 0.00391187 0.0266325 0.0375199 0.00397587 
-0.0189206 0.0419523 0.00398112 -0.0114195 0.0446308 0.00392669 0.0119348 0.0425475 0.0038656 
0.0198024 0.0415898 0.00392952 -0.000470456 0.0460262 0.00397662 -0.00483452 -0.0458367 0.00808408 
-0.00853352 -0.039068 0.00985541 -0.0251835 -0.0326316 0.00983081 0.000192334 -0.0332494 0.00778963 
-0.0192898 -0.0272958 0.00954075 -0.00663771 -0.0267608 0.00986011 0.0251264 -0.029617 0.00761606 
-0.0131274 -0.0222017 0.00970117 0.0406606 -0.0217855 0.00922195 -0.0431678 -0.01613 0.0095015 
-0.0342276 -0.01866 0.00853526 0.0279776 -0.0167417 0.00525431 -0.0352858 -0.00879625 0.0092996 
-0.00370211 -0.00670883 0.00930246 0.00713881 -0.00942531 0.00894932 -0.0458737 -0.00419251 0.00946956 
-0.0251971 -0.00059572 0.00913674 0.0152476 -7.03644e-05 0.00569491 -0.038856 0.00314343 0.00662783 
0.0402526 0.000881308 0.00976295 0.0455773 0.00671817 0.00965548 -0.0153607 0.0122857 0.00961183 
-0.000100699 0.014913 0.00724363 -0.0308042 0.0243321 0.00680333 -0.00760163 0.0248111 0.00894013 
0.0122575 0.0215767 0.00869295 0.0348111 0.0202728 0.0080484 0.0299026 0.0273389 0.00985962 
-0.00578477 0.0434463 0.00935091 0.00755872 0.0454046 0.00984471 0.00697978 -0.0455223 0.0109885 
-0.0226183 -0.0400843 0.0107963 -0.0153834 -0.0433717 0.0107336 0.000695987 -0.0406653 0.0106306 
0.014238 -0.0416501 0.0102024 0.0078765 -0.0363428 0.0106442 0.0222727 -0.0390647 0.0107555 
0.0294763 -0.0354137 0.0107992 -0.033789 -0.0312837 0.0115872 -0.0125492 -0.0321815 0.0104131 
-0.00490683 -0.033329 0.0139219 0.0153276 -0.0337687 0.0105299 0.0219298 -0.0321059 0.0145382 
0.00576764 -0.0286705 0.0113527 0.0183609 -0.026415 0.0102214 0.0280092 -0.0270125 0.0145219 
0.0350972 -0.0297566 0.010778 -0.0386316 -0.024996 0.0106124 -0.0294825 -0.0247206 0.0104269 
-0.0231304 -0.0223806 0.0144717 0.000325827 -0.0229334 0.0108231 0.0112118 -0.0229421 0.0102497 
0.0328903 -0.02206 0.0107478 -0.026784 -0.0160739 0.0108348 -0.0188842 -0.0168905 0.0106295 
-0.00551854 -0.0176222 0.0102082 0.00197783 -0.0151151 0.0110868 0.00970695 -0.015657 0.0130263 
0.0201989 -0.0186756 0.0105244 0.0274283 -0.0168647 0.0133381 0.0367727 -0.0150815 0.0107623 
-0.0448728 -0.0102614 0.0144617 -0.0378114 -0.0138796 0.014908 -0.0104987 -0.0107734 0.010243 
0.0227613 -0.0100204 0.0102651 0.0443664 -0.0124153 0.0107379 -0.0275067 -0.00809056 0.0104616 
-0.0196558 -0.00903238 0.0102262 0.0149151 -0.00967673 0.0114467 0.0306794 -0.0100246 0.0108715 
0.0383393 -0.00730134 0.0111573 -0.0393418 -0.00383579 0.0139188 -0.0329851 -0.000348155 0.0106675 
-0.0138878 -0.00356797 0.0106012 0.00309682 -0.00257727 0.00993225 0.0101473 -0.00366616 0.0135174 
0.0213929 -0.00214435 0.0102912 0.0328488 -0.00160334 0.0114129 0.0458445 -0.00459957 0.0107861 
-0.0389066 0.0040813 0.0145191 -0.0183144 0.00308171 0.0106122 -0.00701341 0.00038819 0.0107643 
0.0101048 0.003655 0.0104788 0.0268932 0.00349305 0.0103086 -0.045765 0.00531958 0.0107817 
-0.0317375 0.00783011 0.0106807 -0.0233445 0.00927524 0.0106934 -0.0117328 0.00632141 0.0136552 
-0.00552901 0.00994432 0.0102619 0.00325475 0.00787698 0.0103523 0.0180255 0.00610896 0.00991013 
0.0343917 0.00611963 0.0104476 -0.0441893 0.0131215 0.0108093 -0.0364035 0.0142939 0.0107855 
0.0112863 0.0114829 0.0104268 0.0243429 0.0110008 0.0105789 0.031841 0.0135721 0.0110672 
0.0396847 0.012057 0.0102483 -0.0285549 0.0152662 0.010699 -0.0210927 0.0178885 0.0099862 
-0.00894088 0.0171109 0.0110868 0.00614967 0.0173868 0.011481 0.0179708 0.0157924 0.0104698 
0.0259106 0.0188026 0.0105921 0.0416869 0.0195952 0.0119589 -0.0410333 0.0208292 0.0106898 
-0.0332499 0.0210227 0.013545 -0.0153228 0.0233405 0.010203 -0.000679122 0.0216994 0.0113068 
0.0196259 0.0236262 0.0108107 -0.036799 0.0276894 0.0107689 -0.0239699 0.025395 0.0107266 
-0.00139737 0.0295478 0.0102499 0.00578828 0.0263645 0.011225 0.0130966 0.0294023 0.0100503 
0.0375635 0.0267656 0.0117719 -0.0311814 0.0338763 0.0105529 -0.0232599 0.0333786 0.01041 
-0.0121531 0.0301973 0.0125527 0.0226847 0.0314706 0.0110607 0.0297169 0.0351934 0.0110515 
-0.0160312 0.0367006 0.0102711 -0.00664936 0.0354982 0.0103811 0.000718087 0.0386427 0.0107062 
0.00888336 0.0376403 0.0111518 0.016452 0.0358838 0.0132051 0.0231965 0.0397504 0.0108495 
-0.0133688 0.0440592 0.0116489 0.0158336 0.0433143 0.0106212 0.000470016 0.0461107 0.0133802 
-0.0088609 -0.0452164 0.0148423 0.00125534 -0.046019 0.0165127 -0.0155769 -0.043343 0.0186563 
-0.00377594 -0.0400473 0.0180638 0.00709662 -0.040649 0.0172714 0.0143297 -0.0437802 0.0178566 
-0.0289345 -0.035873 0.0159338 -0.022787 -0.0400434 0.0187191 -0.0113938 -0.0368411 0.0168732 
0.0158524 -0.0359191 0.0181787 0.0265528 -0.037684 0.0177562 -0.0190664 -0.0335815 0.014861 
0.00263724 -0.0341869 0.0161689 0.0326705 -0.0324999 0.0177743 -0.0368371 -0.0275786 0.0179489 
-0.0285707 -0.0272073 0.017932 -0.0150152 -0.0264217 0.0161271 -0.00469185 -0.0262422 0.0175204 
0.0121337 -0.0291181 0.016076 0.0385923 -0.0250813 0.0162104 -0.0410276 -0.0208499 0.0170194 
0.00608956 -0.0219409 0.0162046 0.0133837 -0.0220139 0.0194231 0.0214012 -0.0233241 0.0168565 
-0.0325774 -0.0198498 0.016168 -0.0177089 -0.0188171 0.0190381 -0.0108761 -0.0164011 0.0158745 
-0.0013784 -0.0190094 0.0174957 0.0166709 -0.0152905 0.0167508 0.0343799 -0.0184458 0.0176379 
0.0423408 -0.0180006 0.0159461 -0.0303082 -0.0121215 0.0167048 -0.0223819 -0.0128324 0.0166731 
-0.00391382 -0.0117665 0.0154285 0.0050652 -0.0148148 0.0195359 0.0447512 -0.0108678 0.018539 
-0.0150666 -0.00969832 0.0166031 0.00322959 -0.00811902 0.0156784 0.0111385 -0.00984596 0.018413 
0.0234143 -0.0093317 0.0181692 0.0335309 -0.0066779 0.0174507 -0.0460353 -0.000305093 0.0163859 
-0.0294279 -0.00379822 0.0168789 -0.0215208 -0.00377052 0.0158669 -0.0139774 -0.0020235 0.0184058 
-0.00311221 -0.00345024 0.016516 0.0174018 -0.00432567 0.0167501 0.0266009 -0.00228543 0.0163119 
0.0385326 -0.000426314 0.0173859 0.0459487 -0.00302958 0.0185837 -0.0267203 0.00389772 0.0154939 
-0.0199828 0.00303765 0.0196497 -0.00221043 0.00477997 0.015292 0.00504901 0.00174476 0.0163306 
0.0124071 0.00123284 0.0193973 0.0209827 0.00334073 0.0167027 0.0457284 0.00479539 0.0173468 
-0.0331296 0.00676221 0.0191955 0.00692629 0.00945556 0.0171401 0.0147869 0.00836437 0.0168116 
[...]
POINT_DATA 890
FIELD FieldData 9
id 1 890 int
328 395 635 139 347 203 196 236 800 
586 677 582 256 398 603 449 396 177 
871 806 739 153 532 627 810 477 860 
28 388 471 90 611 521 602 671 169 
351 190 666 39 634 145 249 120 740 
876 755 176 134 46 275 731 62 11 
830 119 833 385 873 329 189 199 506 
483 675 702 82 197 319 738 538 307 
654 657 473 159 274 450 327 174 2 
10 276 575 787 426 534 14 858 138 
180 432 531 224 278 724 842 430 662 
418 462 35 469 408 298 326 53 89 
349 641 706 4 742 416 546 859 650 
101 713 883 699 85 216 630 601 192 
874 102 323 333 696 230 520 265 401 
244 461 227 698 67 594 118 390 440 
242 733 37 596 231 376 179 613 17 
65 598 571 80 162 284 52 692 429 
206 97 111 59 66 198 200 86 142 
664 413 649 779 667 341 674 113 33 
879 884 411 759 553 862 535 498 682 
563 625 105 259 44 257 422 250 659 
530 570 849 50 708 182 96 482 827 
217 632 175 363 195 809 140 653 804 
317 816 228 689 672 508 16 116 854 
316 836 19 150 478 767 748 222 869 
123 405 289 680 795 41 258 38 737 
338 207 687 886 392 851 778 690 409 
776 608 467 218 167 309 358 526 794 
184 618 780 544 799 523 888 758 221 
622 268 393 70 515 103 386 76 488 
55 354 668 636 855 322 252 215 141 
599 348 253 588 366 606 628 676 295 
5 239 367 514 568 821 18 375 350 
679 541 121 262 383 797 619 766 694 
64 808 273 313 77 171 765 460 229 
796 771 715 431 47 503 791 269 489 
501 438 751 364 7 377 314 63 726 
707 623 399 420 519 365 652 545 812 
880 743 337 149 504 673 126 110 243 
56 612 640 310 318 824 108 499 782 
404 864 370 517 474 651 286 343 848 
30 480 729 21 557 414 576 339 94 
292 133 645 585 223 811 99 464 448 
104 749 847 695 397 251 505 456 22 
655 311 308 92 558 281 136 29 331 
446 378 468 166 129 455 578 547 254 
727 844 114 125 597 266 73 444 725 
642 881 723 42 248 419 802 382 722 
290 721 669 320 435 638 75 187 486 
495 688 451 291 417 373 479 271 803 
424 700 280 701 332 336 240 829 801 
875 237 160 507 878 407 205 736 882 
605 433 406 445 164 720 368 246 127 
87 402 132 465 510 12 850 315 107 
660 188 609 761 522 161 746 579 380 
115 122 574 34 615 572 428 334 285 
381 705 714 128 775 870 58 494 421 
837 210 610 226 528 362 559 518 845 
744 734 154 524 148 208 458 71 584 
403 466 556 757 491 637 36 616 840 
457 352 437 785 157 369 345 856 297 
57 550 529 260 374 43 452 683 213 
83 817 463 852 581 647 68 423 885 
475 1 788 838 335 300 857 219 209 
25 470 798 793 648 288 72 360 357 
770 502 88 106 711 747 492 626 600 
124 6 569 454 69 61 54 691 513 
344 325 91 867 294 389 819 245 685 
567 697 777 484 670 604 591 26 84 
45 193 772 490 573 359 238 173 493 
552 394 263 78 815 629 853 178 728 
3 225 877 644 439 589 220 40 8 
306 442 789 272 537 590 562 686 9 
212 436 681 481 756 15 863 186 23 
305 264 112 233 561 754 790 303 820 
500 764 768 865 784 774 781 425 509 
516 321 361 302 684 211 301 709 191 
283 732 135 485 735 202 704 527 170 
412 117 146 889 745 340 24 312 786 
346 763 158 826 277 299 551 201 643 
165 441 583 621 130 93 20 400 716 
247 487 324 658 807 270 459 564 773 
633 805 261 443 476 384 143 718 631 
304 98 255 663 147 282 678 330 580 
355 185 434 533 342 427 593 511 496 
27 279 100 866 717 543 656 51 831 
371 614 137 214 296 843 540 555 752 
539 234 814 81 560 60 661 512 156 
168 536 109 566 181 565 753 887 823 
356 163 241 841 415 391 890 548 769 
822 825 410 646 194 665 267 183 131 
741 453 839 750 577 719 542 155 592 
235 287 783 703 832 595 549 834 624 
497 447 760 293 151 172 152 693 730 
372 95 204 79 13 144 762 472 710 
49 379 818 353 587 639 828 48 813 
31 232 712 74 872 607 868 792 835 
617 387 620 525 861 554 32 846 
type 1 890 int
1 1 1 1 1 1 1 1 1 
1 1 1 1 1 1 1 1 1 
1 1 1 1 1 1 1 1 1 
1 1 1 1 1 1 1 1 1 
1 1 1 1 1 1 1 1 1 
1 1 1 1 1 1 1 1 1 
1 1 1 1 1 1 1 1 1 
1 1 1 1 1 1 1 1 1 
1 1 1 1 1 1 1 1 1 
1 1 1 1 1 1 1 1 1 
1 1 1 1 1 1 1 1 1 
1 1 1 1 1 1 1 1 1 
1 1 1 1 1 1 1 1 1 
1 1 1 1 1 1 1 1 1 
1 1 1 1 1 1 1 1 1 
1 1 1 1 1 1 1 1 1 
1 1 1 1 1 1 1 1 1 
1 1 1 1 1 1 1 1 1 
1 1 1 1 1 1 1 1 1 
1 1 1 1 1 1 1 1 1 
1 1 1 1 1 1 1 1 1 
1 1 1 1 1 1 1 1 1 
1 1 1 1 1 1 1 1 1 
1 1 1 1 1 1 1 1 1 
1 1 1 1 1 1 1 1 1 
1 1 1 1 1 1 1 1 1 
1 1 1 1 1 1 1 1 1 
1 1 1 1 1 1 1 1 1 
1 1 1 1 1 1 1 1 1 
1 1 1 1 1 1 1 1 1 
1 1 1 1 1 1 1 1 1 
1 1 1 1 1 1 1 1 1 
1 1 1 1 1 1 1 1 1 
1 1 1 1 1 1 1 1 1 
1 1 1 1 1 1 1 1 1 
1 1 1 1 1 1 1 1 1 
1 1 1 1 1 1 1 1 1 
1 1 1 1 1 1 1 1 1 
1 1 1 1 1 1 1 1 1 
1 1 1 1 1 1 1 1 1 
1 1 1 1 1 1 1 1 1 
1 1 1 1 1 1 1 1 1 
1 1 1 1 1 1 1 1 1 
1 1 1 1 1 1 1 1 1 
1 1 1 1 1 1 1 1 1 
1 1 1 1 1 1 1 1 1 
1 1 1 1 1 1 1 1 1 
1 1 1 1 1 1 1 1 1 
1 1 1 1 1 1 1 1 1 
1 1 1 1 1 1 1 1 1 
1 1 1 1 1 1 1 1 1 
1 1 1 1 1 1 1 1 1 
1 1 1 1 1 1 1 1 1 
1 1 1 1 1 1 1 1 1 
1 1 1 1 1 1 1 1 1 
1 1 1 1 1 1 1 1 1 
1 1 1 1 1 1 1 1 1 
1 1 1 1 1 1 1 1 1 
1 1 1 1 1 1 1 1 1 
1 1 1 1 1 1 1 1 1 
1 1 1 1 1 1 1 1 1 
1 1 1 1 1 1 1 1 1 
1 1 1 1 1 1 1 1 1 
1 1 1 1 1 1 1 1 1 
1 1 1 1 1 1 1 1 1 
1 1 1 1 1 1 1 1 1 
1 1 1 1 1 1 1 1 1 
1 1 1 1 1 1 1 1 1 
1 1 1 1 1 1 1 1 1 
1 1 1 1 1 1 1 1 1 
1 1 1 1 1 1 1 1 1 
1 1 1 1 1 1 1 1 1 
1 1 1 1 1 1 1 1 1 
1 1 1 1 1 1 1 1 1 
1 1 1 1 1 1 1 1 1 
1 1 1 1 1 1 1 1 1 
1 1 1 1 1 1 1 1 1 
1 1 1 1 1 1 1 1 1 
1 1 1 1 1 1 1 1 1 
1 1 1 1 1 1 1 1 1 
1 1 1 1 1 1 1 1 1 
1 1 1 1 1 1 1 1 1 
1 1 1 1 1 1 1 1 1 
1 1 1 1 1 1 1 1 1 
1 1 1 1 1 1 1 1 1 
1 1 1 1 1 1 1 1 1 
1 1 1 1 1 1 1 1 1 
1 1 1 1 1 1 1 1 1 
1 1 1 1 1 1 1 1 1 
1 1 1 1 1 1 1 1 1 
1 1 1 1 1 1 1 1 1 
1 1 1 1 1 1 1 1 1 
1 1 1 1 1 1 1 1 1 
1 1 1 1 1 1 1 1 1 
1 1 1 1 1 1 1 1 1 
1 1 1 1 1 1 1 1 1 
1 1 1 1 1 1 1 1 1 
1 1 1 1 1 1 1 1 1 
1 1 1 1 1 1 1 1 
i 3 890 int
0 0 0 0 0 0 0 0 0 
0 0 0 0 0 0 0 0 0 
0 0 0 0 0 0 0 0 0 
0 0 0 0 0 0 0 0 0 
0 0 0 0 0 0 0 0 0 
0 0 0 0 0 0 0 0 0 
0 0 0 0 0 0 0 0 0 
0 0 0 0 0 0 0 0 0 
0 0 0 0 0 0 0 0 0 
0 0 0 0 0 0 0 0 0 
0 0 0 0 0 0 0 0 0 
0 0 0 0 0 0 0 0 0 
0 0 0 0 0 0 0 0 0 
0 0 0 0 0 0 0 0 0 
0 0 0 0 0 0 0 0 0 
0 0 0 0 0 0 0 0 0 
0 0 0 0 0 0 0 0 0 
0 0 0 0 0 0 0 0 0 
0 0 0 0 0 0 0 0 0 
0 0 0 0 0 0 0 0 0 
0 0 0 0 0 0 0 0 0 
0 0 0 0 0 0 0 0 0 
0 0 0 0 0 0 0 0 0 
0 0 0 0 0 0 0 0 0 
0 0 0 0 0 0 0 0 0 
0 0 0 0 0 0 0 0 0 
0 0 0 0 0 0 0 0 0 
0 0 0 0 0 0 0 0 0 
0 0 0 0 0 0 0 0 0 
0 0 0 0 0 0 0 0 0 
0 0 0 0 0 0 0 0 0 
0 0 0 0 0 0 0 0 0 
0 0 0 0 0 0 0 0 0 
0 0 0 0 0 0 0 0 0 
0 0 0 0 0 0 0 0 0 
0 0 0 0 0 0 0 0 0 
0 0 0 0 0 0 0 0 0 
0 0 0 0 0 0 0 0 0 
0 0 0 0 0 0 0 0 0 
0 0 0 0 0 0 0 0 0 
0 0 0 0 0 0 0 0 0 
0 0 0 0 0 0 0 0 0 
0 0 0 0 0 0 0 0 0 
0 0 0 0 0 0 0 0 0 
0 0 0 0 0 0 0 0 0 
0 0 0 0 0 0 0 0 0 
0 0 0 0 0 0 0 0 0 
0 0 0 0 0 0 0 0 0 
0 0 0 0 0 0 0 0 0 
0 0 0 0 0 0 0 0 0 
0 0 0 0 0 0 0 0 0 
0 0 0 0 0 0 0 0 0 
0 0 0 0 0 0 0 0 0 
0 0 0 0 0 0 0 0 0 
0 0 0 0 0 0 0 0 0 
0 0 0 0 0 0 0 0 0 
0 0 0 0 0 0 0 0 0 
0 0 0 0 0 0 0 0 0 
0 0 0 0 0 0 0 0 0 
0 0 0 0 0 0 0 0 0 
0 0 0 0 0 0 0 0 0 
0 0 0 0 0 0 0 0 0 
0 0 0 0 0 0 0 0 0 
0 0 0 0 0 0 0 0 0 
0 0 0 0 0 0 0 0 0 
0 0 0 0 0 0 0 0 0 
0 0 0 0 0 0 0 0 0 
0 0 0 0 0 0 0 0 0 
0 0 0 0 0 0 0 0 0 
0 0 0 0 0 0 0 0 0 
0 0 0 0 0 0 0 0 0 
0 0 0 0 0 0 0 0 0 
0 0 0 0 0 0 0 0 0 
0 0 0 0 0 0 0 0 0 
0 0 0 0 0 0 0 0 0 
0 0 0 0 0 0 0 0 0 
0 0 0 0 0 0 0 0 0 
0 0 0 0 0 0 0 0 0 
0 0 0 0 0 0 0 0 0 
0 0 0 0 0 0 0 0 0 
0 0 0 0 0 0 0 0 0 
0 0 0 0 0 0 0 0 0 
0 0 0 0 0 0 0 0 0 
0 0 0 0 0 0 0 0 0 
0 0 0 0 0 0 0 0 0 
0 0 0 0 0 0 0 0 0 
0 0 0 0 0 0 0 0 0 
0 0 0 0 0 0 0 0 0 
0 0 0 0 0 0 0 0 0 
0 0 0 0 0 0 0 0 0 
0 0 0 0 0 0 0 0 0 
0 0 0 0 0 0 0 0 0 
0 0 0 0 0 0 0 0 0 
0 0 0 0 0 0 0 0 0 
0 0 0 0 0 0 0 0 0 
0 0 0 0 0 0 0 0 0 
0 0 0 0 0 0 0 0 0 
0 0 0 0 0 0 0 0 0 
0 0 0 0 0 0 0 0 0 
0 0 0 0 0 0 0 0 0 
0 0 0 0 0 0 0 0 0 
0 0 0 0 0 0 0 0 0 
0 0 0 0 0 0 0 0 0 
0 0 0 0 0 0 0 0 0 
0 0 0 0 0 0 0 0 0 
0 0 0 0 0 0 0 0 0 
0 0 0 0 0 0 0 0 0 
0 0 0 0 0 0 0 0 0 
0 0 0 0 0 0 0 0 0 
0 0 0 0 0 0 0 0 0 
0 0 0 0 0 0 0 0 0 
0 0 0 0 0 0 0 0 0 
0 0 0 0 0 0 0 0 0 
0 0 0 0 0 0 0 0 0 
0 0 0 0 0 0 0 0 0 
0 0 0 0 0 0 0 0 0 
0 0 0 0 0 0 0 0 0 
0 0 0 0 0 0 0 0 0 
0 0 0 0 0 0 0 0 0 
0 0 0 0 0 0 0 0 0 
0 0 0 0 0 0 0 0 0 
0 0 0 0 0 0 0 0 0 
0 0 0 0 0 0 0 0 0 
0 0 0 0 0 0 0 0 0 
0 0 0 0 0 0 0 0 0 
0 0 0 0 0 0 0 0 0 
0 0 0 0 0 0 0 0 0 
0 0 0 0 0 0 0 0 0 
0 0 0 0 0 0 0 0 0 
0 0 0 0 0 0 0 0 0 
0 0 0 0 0 0 0 0 0 
0 0 0 0 0 0 0 0 0 
0 0 0 0 0 0 0 0 0 
0 0 0 0 0 0 0 0 0 
0 0 0 0 0 0 0 0 0 
0 0 0 0 0 0 0 0 0 
0 0 0 0 0 0 0 0 0 
0 0 0 0 0 0 0 0 0 
0 0 0 0 0 0 0 0 0 
0 0 0 0 0 0 0 0 0 
0 0 0 0 0 0 0 0 0 
0 0 0 0 0 0 0 0 0 
0 0 0 0 0 0 0 0 0 
0 0 0 0 0 0 0 0 0 
0 0 0 0 0 0 0 0 0 
0 0 0 0 0 0 0 0 0 
0 0 0 0 0 0 0 0 0 
0 0 0 0 0 0 0 0 0 
0 0 0 0 0 0 0 0 0 
0 0 0 0 0 0 0 0 0 
0 0 0 0 0 0 0 0 0 
0 0 0 0 0 0 0 0 0 
0 0 0 0 0 0 0 0 0 
0 0 0 0 0 0 0 0 0 
0 0 0 0 0 0 0 0 0 
0 0 0 0 0 0 0 0 0 
0 0 0 0 0 0 0 0 0 
0 0 0 0 0 0 0 0 0 
0 0 0 0 0 0 0 0 0 
0 0 0 0 0 0 0 0 0 
0 0 0 0 0 0 0 0 0 
0 0 0 0 0 0 0 0 0 
0 0 0 0 0 0 0 0 0 
0 0 0 0 0 0 0 0 0 
0 0 0 0 0 0 0 0 0 
0 0 0 0 0 0 0 0 0 
0 0 0 0 0 0 0 0 0 
0 0 0 0 0 0 0 0 0 
0 0 0 0 0 0 0 0 0 
0 0 0 0 0 0 0 0 0 
0 0 0 0 0 0 0 0 0 
0 0 0 0 0 0 0 0 0 
0 0 0 0 0 0 0 0 0 
0 0 0 0 0 0 0 0 0 
0 0 0 0 0 0 0 0 0 
0 0 0 0 0 0 0 0 0 
0 0 0 0 0 0 0 0 0 
0 0 0 0 0 0 0 0 0 
0 0 0 0 0 0 0 0 0 
0 0 0 0 0 0 0 0 0 
0 0 0 0 0 0 0 0 0 
0 0 0 0 0 0 0 0 0 
0 0 0 0 0 0 0 0 0 
0 0 0 0 0 0 0 0 0 
0 0 0 0 0 0 0 0 0 
0 0 0 0 0 0 0 0 0 
0 0 0 0 0 0 0 0 0 
0 0 0 0 0 0 0 0 0 
0 0 0 0 0 0 0 0 0 
0 0 0 0 0 0 0 0 0 
0 0 0 0 0 0 0 0 0 
0 0 0 0 0 0 0 0 0 
0 0 0 0 0 0 0 0 0 
0 0 0 0 0 0 0 0 0 
0 0 0 0 0 0 0 0 0 
0 0 0 0 0 0 0 0 0 
0 0 0 0 0 0 0 0 0 
0 0 0 0 0 0 0 0 0 
0 0 0 0 0 0 0 0 0 
0 0 0 0 0 0 0 0 0 
0 0 0 0 0 0 0 0 0 
0 0 0 0 0 0 0 0 0 
0 0 0 0 0 0 0 0 0 
0 0 0 0 0 0 0 0 0 
0 0 0 0 0 0 0 0 0 
0 0 0 0 0 0 0 0 0 
0 0 0 0 0 0 0 0 0 
0 0 0 0 0 0 0 0 0 
0 0 0 0 0 0 0 0 0 
0 0 0 0 0 0 0 0 0 
0 0 0 0 0 0 0 0 0 
0 0 0 0 0 0 0 0 0 
0 0 0 0 0 0 0 0 0 
0 0 0 0 0 0 0 0 0 
0 0 0 0 0 0 0 0 0 
0 0 0 0 0 0 0 0 0 
0 0 0 0 0 0 0 0 0 
0 0 0 0 0 0 0 0 0 
0 0 0 0 0 0 0 0 0 
0 0 0 0 0 0 0 0 0 
0 0 0 0 0 0 0 0 0 
0 0 0 0 0 0 0 0 0 
0 0 0 0 0 0 0 0 0 
0 0 0 0 0 0 0 0 0 
0 0 0 0 0 0 0 0 0 
0 0 0 0 0 0 0 0 0 
0 0 0 0 0 0 0 0 0 
0 0 0 0 0 0 0 0 0 
0 0 0 0 0 0 0 0 0 
0 0 0 0 0 0 0 0 0 
0 0 0 0 0 0 0 0 0 
0 0 0 0 0 0 0 0 0 
0 0 0 0 0 0 0 0 0 
0 0 0 0 0 0 0 0 0 
0 0 0 0 0 0 0 0 0 
0 0 0 0 0 0 0 0 0 
0 0 0 0 0 0 0 0 0 
0 0 0 0 0 0 0 0 0 
0 0 0 0 0 0 0 0 0 
0 0 0 0 0 0 0 0 0 
0 0 0 0 0 0 0 0 0 
0 0 0 0 0 0 0 0 0 
0 0 0 0 0 0 0 0 0 
0 0 0 0 0 0 0 0 0 
0 0 0 0 0 0 0 0 0 
0 0 0 0 0 0 0 0 0 
0 0 0 0 0 0 0 0 0 
0 0 0 0 0 0 0 0 0 
0 0 0 0 0 0 0 0 0 
0 0 0 0 0 0 0 0 0 
0 0 0 0 0 0 0 0 0 
0 0 0 0 0 0 0 0 0 
0 0 0 0 0 0 0 0 0 
0 0 0 0 0 0 0 0 0 
0 0 0 0 0 0 0 0 0 
0 0 0 0 0 0 0 0 0 
0 0 0 0 0 0 0 0 0 
0 0 0 0 0 0 0 0 0 
0 0 0 0 0 0 0 0 0 
0 0 0 0 0 0 0 0 0 
0 0 0 0 0 0 0 0 0 
0 0 0 0 0 0 0 0 0 
0 0 0 0 0 0 0 0 0 
0 0 0 0 0 0 0 0 0 
0 0 0 0 0 0 0 0 0 
0 0 0 0 0 0 0 0 0 
0 0 0 0 0 0 0 0 0 
0 0 0 0 0 0 0 0 0 
0 0 0 0 0 0 0 0 0 
0 0 0 0 0 0 0 0 0 
0 0 0 0 0 0 0 0 0 
0 0 0 0 0 0 0 0 0 
0 0 0 0 0 0 0 0 0 
0 0 0 0 0 0 0 0 0 
0 0 0 0 0 0 0 0 0 
0 0 0 0 0 0 0 0 0 
0 0 0 0 0 0 0 0 0 
0 0 0 0 0 0 0 0 0 
0 0 0 0 0 0 0 0 0 
0 0 0 0 0 0 0 0 0 
0 0 0 0 0 0 0 0 0 
0 0 0 0 0 0 0 0 0 
0 0 0 0 0 0 0 0 0 
0 0 0 0 0 0 0 0 0 
0 0 0 0 0 0 0 0 0 
0 0 0 0 0 0 0 0 0 
0 0 0 0 0 0 0 0 0 
0 0 0 0 0 0 0 0 0 
0 0 0 0 0 0 0 0 0 
0 0 0 0 0 0 0 0 0 
0 0 0 0 0 0 0 0 0 
0 0 0 0 0 0 0 0 0 
0 0 0 0 0 0 0 0 0 
0 0 0 0 0 0 0 0 0 
0 0 0 0 0 0 0 0 0 
0 0 0 0 0 0 0 0 0 
0 0 0 0 0 0 
v 3 890 double
0.0162057 0.0031159 0.000605694 -0.0085879 -0.00365826 0.00345825 -0.0127065 -0.00206905 0.00174673 
-0.0329343 -0.00782203 0.000467961 -0.000514583 -0.00218969 -0.00801859 -0.0011557 -0.00136893 0.00576328 
0.00188094 -0.0213502 -0.0095543 -0.000899575 0.00106999 0.000664546 0.00573575 0.00500914 0.00416393 
0.0112786 -0.025914 -0.00690596 0.0140909 0.00153851 -0.00444597 -0.00149316 -0.00488495 0.00670318 
0.00576046 -0.00640052 -0.00283394 -0.00791456 0.00429272 -0.00811961 0.0274006 -0.00382072 0.000819536 
0.00530224 -0.0178421 -0.0197791 -0.00134663 0.00374057 -0.00639063 -0.0162411 -0.0142066 0.00879716 
0.00748277 0.0113272 0.00695653 0.00209111 0.0256814 -0.0193285 0.00881183 -0.00111579 -0.00130292 
0.0436957 -0.0344283 0.00494956 0.00264155 0.00952812 -0.0140601 -0.00187559 -0.00135418 -0.0107456 
-0.0170883 0.0288339 0.00910393 0.0293744 0.00662149 -0.00941271 0.0167293 -0.00455079 0.00026402 
0.036232 -0.0790757 0.00796191 -0.00786683 0.0238466 -0.00475031 -0.0300589 0.00124159 -0.00412804 
0.0220607 0.0042737 -0.00381022 0.0208122 -0.00389992 -0.00627592 0.0090211 -0.00454702 -0.00276304 
-0.0381495 -0.00863707 -0.00148107 0.00408648 0.0108659 -0.0030118 0.00441442 0.0069406 -0.00127416 
-0.00600672 0.00441186 -0.00147522 -0.00601917 0.00772881 0.00324235 -0.0492197 0.0156901 0.00983252 
0.0402144 0.0220815 -0.000967941 0.0424485 0.021456 0.00645488 0.00177097 -0.00287561 0.00314246 
-0.0225391 -0.00833958 0.00351843 -0.00587525 0.00734479 -0.000168642 -0.00574646 0.00311573 -0.00964485 
-0.0107985 -0.0059646 -0.00590782 0.0152412 0.010556 0.00192016 -0.00358624 -0.00316156 0.00259231 
-0.00965294 -0.0164056 -0.00128398 0.00299495 0.0305638 0.0136998 -0.0088521 0.00513295 -0.00467906 
-0.00771383 0.00193199 0.0114774 -0.0183325 -0.00524852 0.00416368 0.0225862 -0.00111053 -0.000199234 
0.0132296 0.0154438 -0.00110459 -0.0184325 0.0161851 0.00453441 -0.0897133 0.0134188 0.00406601 
-0.0118057 0.00681082 0.00203804 -0.00363005 -0.0199356 0.000135884 -0.00677339 0.00526064 -0.005867 
-0.0076315 0.00330839 -0.00279226 -0.000455694 -0.00169503 -0.00878371 0.00147328 0.0202257 0.000752293 
-0.00757736 0.0110224 -0.0104236 0.0022325 0.00430627 -0.00240255 0.0027123 -0.0334739 -0.0019228 
-0.00282351 -0.00358004 -0.00486425 -0.00600441 0.00531881 -0.00516202 0.0105984 0.0177195 0.00442202 
-0.0136386 0.0133318 -0.00701123 0.013326 -0.0117513 -0.00511143 0.00343297 -0.00931917 -0.00885214 
0.0159805 -0.00753242 0.00401208 -0.021554 -0.0220199 0.000883187 -0.00479817 -0.00496546 0.00201443 
-0.00212275 0.0115936 0.0059704 -0.00111391 0.0246765 0.00503284 0.0199377 0.0178343 0.000276273 
0.0083566 0.0109352 0.00204584 0.00238966 -0.00369348 -0.00107784 0.00116701 0.00536481 0.00328728 
-0.00355123 -0.0104651 -0.00404761 -0.0206913 -0.0248396 0.00242944 -0.046688 -0.0416061 -0.00281923 
-0.0160018 0.00603799 0.00397256 -0.00105662 0.0120275 0.00557438 -0.0116439 -0.00572596 0.00543954 
0.0200972 0.0249162 0.00921942 -0.00390573 -0.00270958 0.00128055 -0.00534512 -0.0115629 0.00166068 
-0.0181851 -0.00650106 0.00303406 -0.0139993 0.00585835 0.0071882 0.0198547 0.00268836 -0.00250701 
-0.0147232 0.00817218 0.00428395 -0.0107632 0.0134122 0.00345979 -0.0179386 0.0114492 -5.35563e-05 
-0.0108874 -0.00401295 0.00325566 -0.00466415 0.00502217 0.00333534 -0.00774407 -0.00382156 -0.00159405 
-0.0130366 -0.000415917 0.000369633 -0.0149635 0.0173654 -0.00665497 -0.00746365 -0.0213623 0.00620216 
-0.0216952 -0.00380647 0.000247843 -0.00377831 0.00987353 -0.00894579 -0.0133665 0.0101481 -0.00136343 
-0.00769323 0.00899887 -0.060597 -0.02032 -0.0119702 0.00242304 -0.000398309 -0.00924218 -0.000485536 
-0.0082805 -0.0200154 -0.00339076 -0.00608747 -0.00667929 -0.000621775 -0.0197827 0.00789057 0.00337164 
-0.0341778 -0.0175302 0.00185356 -0.0480358 -0.00917205 0.000445576 -0.00947916 0.00151356 0.00555245 
-0.0165617 0.00918149 0.00188189 -0.00196273 -0.00569592 0.000153517 0.0118434 -0.00379657 -0.0187746 
-0.0134099 -0.0237827 -0.00928753 0.0207842 0.00843019 -0.000790343 0.0111737 -0.010771 -0.0293403 
0.00208418 0.0132527 -0.0234605 0.0208059 -0.00171807 -0.0187278 0.0161182 -0.0209317 -0.0463832 
0.0241297 0.0152475 -0.0140786 0.00617819 0.00822916 -0.00759427 0.005469 -0.0291126 -0.0192244 
-0.0255625 -0.00987339 0.00358857 0.0040959 0.0378025 -0.0318933 0.000992848 -0.00132978 -0.00671773 
0.0299365 0.0256294 -0.00561634 0.0591639 -0.00626005 -0.0036704 -0.00797702 -0.000630811 -0.0189311 
-0.0038208 -0.0259012 0.000646029 -0.000903813 0.00318572 0.00336833 -0.0117017 0.000768023 -0.00728747 
-0.00617257 0.00123342 -0.000102737 0.00558644 -0.0145534 -0.00640411 -0.0173629 -0.00446359 -0.00180655 
-0.00577875 0.0119819 -0.00843002 -0.0118146 -0.00659076 -0.0138576 -0.0106021 -0.00309957 0.00517515 
-0.0146428 -0.000412805 -0.00344835 0.0105589 -0.00374627 -0.000655398 0.0143252 -0.0240115 -0.000621577 
-0.0242967 -0.00826427 -0.0152601 0.000864766 -0.00470711 0.014275 -0.050967 -0.0128287 -0.0156398 
-0.00826868 0.00163459 0.014646 -0.0174633 0.00617482 0.00472234 -0.00639062 0.0240647 0.0117875 
0.00317026 -0.039582 -0.00726844 0.0196292 -0.00375319 0.0131619 -0.00935297 -0.00311753 -0.0316796 
0.00445879 0.00280422 -0.00130882 0.0134648 -0.0193055 0.0194237 0.0693291 -0.000604338 -0.0379555 
-0.0154331 -0.0142743 -0.0312323 0.0273082 -0.0378417 -0.00932911 0.0318486 0.0252604 -0.0492296 
-0.0021572 -0.0137304 -0.00200978 0.0326337 -0.0400777 0.0176848 0.00867902 0.00471237 -0.0471941 
0.00452324 0.0112854 -0.032528 0.0107283 -0.013998 -0.0171469 -0.0141578 -0.00320432 0.0122124 
0.0133639 0.0239636 -0.0361185 0.024395 0.015193 -0.0167026 0.0337856 -0.0366709 0.00275992 
0.00107014 0.0242549 -0.00718183 0.00619986 -0.0297176 -0.00426144 0.0150574 0.0179162 -0.0205283 
0.0314435 0.00826496 -0.00743824 0.0298744 0.0195634 -0.0153638 0.0254335 -0.0220458 -0.0169608 
0.0136588 -0.032343 -0.0151349 -0.0013079 0.0148156 -0.00251664 0.0303771 0.00921418 0.00704215 
-0.00676131 -0.0213486 -0.0547115 -0.00805569 0.0176256 -0.00213619 0.0212271 0.00926517 -0.00933495 
0.0138824 -0.00636441 -0.00405473 0.00441053 0.0105875 0.0150469 -0.00189116 -0.0459138 -0.0108492 
-0.00870399 0.00868427 -0.0176526 0.0230165 0.00463342 0.00351758 0.0189481 -0.00508145 -0.0129384 
0.013405 0.0170443 0.0138968 -0.00886348 -0.00378265 -0.0278107 -0.00375709 0.0289276 0.00592855 
0.00468165 0.00400925 -0.000750489 0.053526 0.00288982 -0.0381312 0.0299785 4.57994e-05 0.00653386 
0.00214485 -0.00771697 -0.00186807 -0.00320154 -0.002051 -0.0216249 0.0052188 0.0154508 0.0384079 
-0.00887565 -0.0037579 -0.0110933 0.00491298 -0.0146315 0.00473958 0.00851047 0.00909343 -0.0103609 
0.00372499 0.00318709 -0.000535023 -0.00181147 -0.0138264 -0.0216319 -0.00366499 0.0087774 -0.0106583 
0.0183137 -0.0134337 0.00844266 -0.0115927 -0.035477 -0.00359321 0.00391602 0.0269603 -0.00961658 
0.0057578 0.0118692 0.00206476 -0.00687661 0.027247 -0.0114024 -0.00985255 0.0177508 -0.00822791 
-0.00717065 0.000829235 -0.0247018 -0.000518906 0.00255554 -0.000248695 0.00331857 -0.0225603 -0.00870866 
-0.0250494 0.0121282 -0.000628773 0.0202775 -0.000793123 -0.0121898 0.0133155 0.00581031 0.00895039 
0.00606602 -0.0114963 0.0038744 0.00590864 -0.0214918 0.0193093 -0.00232713 -0.00774584 -0.00772488 
0.00605857 0.0120942 0.00389523 -0.0179571 0.0200809 0.0122168 0.00858499 -0.0238172 -0.0158251 
0.0143808 0.00222234 0.00838828 0.0035271 -0.0222041 0.00117802 0.000432653 -0.00229264 0.0128002 
-0.00405483 -0.018713 -0.0138397 0.00278148 -0.0189441 -0.0206624 -0.0242382 -0.00844272 0.0228119 
-0.0113635 -0.0292581 -0.0189746 -0.00177193 -0.00402987 -0.00354544 -0.0230038 0.00964955 -0.0032429 
-0.0090433 -0.00922979 0.0150226 -0.0118883 -0.0314398 0.011125 -0.0278373 -0.0194906 0.0175657 
0.0144248 -0.0249338 0.00958182 -0.00991622 -0.00744698 -0.000895003 -0.0148204 0.0114488 -0.010547 
-0.0347523 -0.00121934 -0.0448919 -0.0132583 -0.0152788 -0.000916332 -0.0113998 0.00658343 -0.126961 
-0.0199382 0.0101141 -0.0146705 -0.00906838 -0.00682788 -0.00223193 -0.00959305 0.00479667 -0.0120594 
-0.0225438 -0.0175736 -0.00250353 -0.00438527 -0.0116454 0.0213122 -0.0263773 0.01566 0.0120945 
-0.0161594 -0.0034552 -0.000468608 -0.00808564 -0.00168773 0.00996621 -0.0165939 0.00289703 -0.0214712 
-0.000656468 -0.0135576 -0.028488 -0.0547618 -0.00458898 -0.0199471 0.0183676 0.000248161 0.00350683 
-0.0337821 0.0084475 -0.00868883 -0.0319343 -0.0302303 -0.00299593 -0.0188471 -0.00108181 -0.00172894 
0.0309318 -0.0278653 -0.0236352 0.0218429 -0.0023898 0.0250975 -0.0438546 0.0315966 -0.0340105 
0.0172909 0.0116493 0.000182425 -0.00920636 -0.00507562 -0.0032896 0.049884 -0.0182114 -0.0382801 
-0.0271071 -0.0346542 -0.0275582 -0.0320171 -0.0371091 -0.0517155 -0.0116995 -0.0105497 -0.00124175 