# vtk DataFile Version 4.0
Generated by LIGGGHTS
ASCII
DATASET POLYDATA
POINTS 890 float
0.00188439 -0.0460545 0.00395105 -0.0191918 -0.0418329 0.00393926 -0.0116724 -0.0445171 0.00393841 
0.0107927 -0.0447569 0.00394156 0.0194922 -0.0417464 0.00393324 -0.0261506 -0.0379389 0.00395254 
-0.0131129 -0.0366725 0.00392007 -0.00360069 -0.0390746 0.00389616 0.00430387 -0.0385558 0.00392256 
0.0120503 -0.0369032 0.00394693 0.0263805 -0.0376875 0.00397122 -0.032246 -0.0328588 0.00395172 
-0.0200588 -0.032907 0.00391121 -0.00683884 -0.0317741 0.00397081 0.0067153 -0.031016 0.00395936 
0.0193221 -0.0338302 0.00389596 0.0325269 -0.0325495 0.00393336 -0.0337881 -0.0250731 0.00392169 
-0.0259101 -0.0275108 0.00391732 -0.0134107 -0.027279 0.003908 -0.000947252 -0.0264072 0.00383583 
0.0140536 -0.0278614 0.00395623 0.0376938 -0.0265032 0.00390864 -0.0408034 -0.0213517 0.00390341 
-0.0201457 -0.0220096 0.00397332 -0.00772789 -0.0217329 0.00390059 0.00626781 -0.0231239 0.00393949 
0.0222497 -0.0231253 0.00388982 0.0300939 -0.0242754 0.0038987 -0.0278261 -0.019808 0.00392189 
-0.0140409 -0.0168932 0.00397372 -0.000224627 -0.0184935 0.0039425 0.00704102 -0.0152693 0.00394871 
0.0143151 -0.0186969 0.0039815 0.0282109 -0.0166125 0.00490109 0.0358108 -0.0187781 0.00391819 
0.0432131 -0.0158294 0.00397482 -0.0449746 -0.010014 0.00396243 -0.0380684 -0.0138861 0.00389213 
-0.030262 -0.0122322 0.00396711 -0.0220837 -0.0142689 0.0039658 -0.0052706 -0.0123521 0.00393172 
0.0135151 -0.010722 0.00386659 0.0207932 -0.0139158 0.00389725 0.0349699 -0.0109216 0.00397267 
-0.0236576 -0.00646624 0.00389649 -0.0145055 -0.00895379 0.00391103 0.00200749 -0.00910731 0.00393011 
0.0199052 -0.00600142 0.00394791 0.0273345 -0.00876238 0.00393873 0.0453012 -0.00812421 0.00390747 
-0.0392907 -0.00447025 0.00394656 -0.0313114 -0.00433777 0.00394625 -0.0176407 -0.0012638 0.00393619 
-0.00871169 -0.00356221 0.00396443 -0.00162387 -1.96163e-05 0.00392118 0.00822997 -0.00371306 0.00389755 
0.0282086 -0.000856998 0.00392077 0.0385509 -0.00387705 0.00390628 -0.0460563 0.00160073 0.0038627 
-0.0316288 0.00358553 0.00395706 -0.0236972 0.00463031 0.00395499 -0.00825107 0.00440595 0.00393829 
0.00572938 0.00383485 0.00395335 0.0218665 0.00391972 0.00392347 0.0458578 0.00100853 0.0039815 
-0.0450409 0.00946331 0.0039155 -0.0370627 0.00982423 0.0039234 -0.0159299 0.00650837 0.0039721 
-0.00109147 0.00789921 0.00390337 0.0128159 0.00761227 0.00390296 0.0293391 0.0070504 0.00390874 
0.0387927 0.00662971 0.00394612 -0.0291944 0.0111377 0.00394626 -0.0213222 0.0123618 0.00392315 
-0.0102306 0.0121014 0.00387625 0.00607063 0.011807 0.00393867 0.0197433 0.011562 0.00392936 
0.0270936 0.0146644 0.00394678 0.0349855 0.0136424 0.00389926 0.0443572 0.012336 0.00393139 
-0.0427516 0.0170799 0.00394009 -0.0348022 0.0174073 0.00393578 -0.026292 0.0185537 0.00391208 
-0.0156135 0.0179448 0.00397293 -0.0067432 0.0192359 0.00391555 0.00546821 0.0197661 0.00392354 
0.0129815 0.0157995 0.00389071 0.0207499 0.0194705 0.00392683 0.0415715 0.0197611 0.0039278 
-0.0390682 0.0242873 0.0039702 -0.0203965 0.0242957 0.00393034 -0.000861724 0.0246821 0.0039815 
0.0283996 0.0224815 0.0039281 -0.0264491 0.029474 0.00389448 -0.0132257 0.0277651 0.00390667 
0.00806708 0.0272703 0.00393909 0.0161223 0.0264438 0.00391827 0.0250884 0.0296747 0.00387619 
0.0375582 0.0266103 0.00392643 -0.0343319 0.0307316 0.00391898 -0.0192732 0.032873 0.003869 
-0.00599873 0.031025 0.00390816 0.00236105 0.032831 0.00394685 0.0105468 0.0348334 0.00396852 
0.0184563 0.0340325 0.00398445 0.0324441 0.0326741 0.00396389 -0.0267895 0.0374285 0.00398237 
-0.0118876 0.0363629 0.00395443 -0.00340396 0.038536 0.00389218 0.0263092 0.0377437 0.0039145 
-0.0199335 0.0415014 0.00394601 -0.0124648 0.0443103 0.00397254 0.00484569 0.0403783 0.0039266 
0.0115416 0.0445895 0.00391139 0.0190581 0.0419328 0.0039621 -0.000694529 0.0460532 0.00394957 
-0.00494206 -0.0457981 0.00796462 -0.00863796 -0.0390511 0.00996266 -1.66982e-05 -0.0331318 0.00783958 
-0.0189275 -0.0275532 0.00957523 -0.00591432 -0.0265371 0.00994148 0.0253725 -0.029833 0.00688147 
0.0114611 -0.0232887 0.00991566 0.040669 -0.021693 0.00943727 -0.043033 -0.0163513 0.00961146 
-0.0340918 -0.0187047 0.00871501 -0.0352121 -0.00879565 0.00922302 -0.0195687 -0.00954239 0.00992692 
-0.00317213 -0.00612308 0.00913524 0.00786063 -0.00946812 0.00928331 -0.0458498 -0.00412669 0.00923988 
-0.0253076 -0.000973469 0.00938976 0.00337565 -0.00162906 0.00980876 -0.0389312 0.00281994 0.00704405 
0.0150239 0.000118505 0.00523245 0.0401151 0.00125616 0.00965548 0.0455611 0.0069653 0.00961532 
-0.0157329 0.0122061 0.00954292 -0.00564814 0.0101253 0.00997119 -0.0212248 0.0179137 0.00995808 
-0.000482253 0.0152723 0.00673986 -0.0313477 0.0239548 0.00666359 -0.0153364 0.0231784 0.0099863 
0.0118759 0.0218935 0.00883261 0.0348183 0.0204089 0.00810585 -0.00774968 0.0251837 0.0090209 
0.0297539 0.0275089 0.00993053 -0.0169857 0.0372813 0.00997732 -0.00633554 0.0438047 0.00904402 
-0.00886797 -0.0452418 0.0148563 0.00641476 -0.0456022 0.0105129 -0.02274 -0.0400358 0.0108287 
-0.0154742 -0.0433237 0.0108068 0.000339818 -0.0404877 0.0106486 0.0145116 -0.0413058 0.0100827 
0.00791724 -0.036904 0.0107663 0.022973 -0.0398817 0.0108532 0.0296649 -0.0352219 0.0108162 
-0.0336435 -0.0314588 0.011647 -0.0251763 -0.032502 0.0100139 -0.0185142 -0.034123 0.0140832 
-0.0119272 -0.0318014 0.0102635 -0.00505743 -0.0332357 0.0140201 0.014954 -0.0332705 0.0104817 
0.0221871 -0.0324937 0.0137219 -0.0384591 -0.0253132 0.0103424 0.0057706 -0.0292663 0.0116657 
0.0187689 -0.0262872 0.0102488 0.0282899 -0.0272711 0.0137465 0.0352941 -0.0295739 0.0108138 
-0.0294119 -0.0248495 0.0105371 -0.0228664 -0.0227929 0.0144647 -0.0127041 -0.0225294 0.0102558 
0.00130718 -0.0228054 0.0104767 0.0328328 -0.0214821 0.0107755 -0.0265489 -0.016615 0.0110463 
-0.01867 -0.0173757 0.0104568 -0.00521485 -0.0174725 0.0100521 0.010806 -0.0159277 0.0128052 
0.0208936 -0.0186257 0.0102369 0.0276399 -0.0161862 0.0137216 -0.0449441 -0.0101846 0.0141849 
-0.0378372 -0.0135563 0.0149888 -0.00977668 -0.0104457 0.010153 -0.00345376 -0.0115105 0.0149987 
0.00227927 -0.0149181 0.0106071 0.0231806 -0.0103264 0.010553 0.0370647 -0.0147188 0.0106774 
0.0445088 -0.0119235 0.0108147 -0.0274121 -0.00871346 0.0105242 0.0155125 -0.00842689 0.0111054 
0.0310521 -0.0095449 0.0109142 0.0384883 -0.00680513 0.0113462 -0.0395456 -0.00433588 0.0141137 
-0.0331056 -0.000900765 0.0109175 -0.0141047 -0.0037865 0.0105763 0.0100366 -0.00334147 0.0138078 
0.0205067 -0.0017948 0.0106643 0.0325859 -0.00159779 0.0104617 0.0459028 -0.00404764 0.0106743 
-0.0392599 0.00357508 0.0149244 -0.0184682 0.00287577 0.0106929 -0.0073615 0.000420911 0.0107274 
0.0102928 0.00383526 0.010455 0.0264506 0.00348326 0.0103694 -0.045732 0.0054749 0.0107684 
-0.0314916 0.00735799 0.0109676 -0.0236604 0.00890109 0.0106733 -0.0118478 0.00641379 0.0133102 
0.003459 0.00796041 0.0104195 0.0176933 0.00672748 0.0101015 0.0339791 0.00620509 0.010273 
-0.0441628 0.0132649 0.0107936 -0.0363168 0.0136894 0.0108156 -0.000472094 0.0139706 0.0146068 
0.0108033 0.0117556 0.0103397 0.0242679 0.0111623 0.0104808 0.0317547 0.0137427 0.0111429 
0.0394591 0.0120078 0.0102119 -0.0285723 0.0151395 0.0107689 -0.00867819 0.0173667 0.0114166 
0.00575115 0.0177251 0.011565 0.0176665 0.0157889 0.0102923 0.0258618 0.0190021 0.0106318 
0.041772 0.0194559 0.011845 -0.0411084 0.020704 0.0108069 -0.0336022 0.0206837 0.0134797 
-0.00134225 0.0213554 0.011729 0.0194139 0.0235918 0.0105503 -0.0369658 0.0274885 0.0109741 
-0.0245647 0.0251921 0.0106067 -0.00140756 0.0297114 0.0101894 0.00532891 0.0256899 0.0112465 
0.0123674 0.029716 0.0101505 0.0374255 0.0269297 0.0118437 -0.0316689 0.0334243 0.0108859 
-0.0237577 0.0331075 0.0103654 -0.0129827 0.0306109 0.0115829 0.0226351 0.0314257 0.0111344 
-0.0068262 0.0355591 0.0104215 0.000854159 0.038704 0.0105471 0.00873453 0.0375183 0.0112498 
0.0164 0.0359547 0.0129259 0.0228836 0.0399586 0.01069 0.0294789 0.0354104 0.0108281 
-0.0135879 0.0440523 0.0122217 0.0152526 0.0434758 0.0107913 -8.08244e-06 0.0460672 0.0133338 
0.00749749 0.0453948 0.0107296 0.000561201 -0.0460929 0.016197 -0.0227276 -0.0400596 0.0187805 
-0.0155392 -0.0433573 0.0187395 0.00687495 -0.0414003 0.0172492 0.0143986 -0.0437694 0.0175975 
-0.0288821 -0.0358833 0.0161492 -0.0115467 -0.0367359 0.0169319 -0.00405608 -0.0399237 0.0182022 
0.00236315 -0.0350019 0.0160812 0.0160578 -0.0357627 0.0179634 0.0266719 -0.0376131 0.0177289 
0.0327603 -0.0323891 0.0178261 -0.0371298 -0.0272015 0.0179633 -0.0286589 -0.0267515 0.0182361 
-0.0156542 -0.0262602 0.0166708 -0.00473924 -0.026188 0.0177528 0.00279444 -0.0278981 0.0195444 
0.0120507 -0.0289227 0.0164829 0.0386442 -0.0250039 0.0164195 -0.0412101 -0.0206204 0.0160966 
-0.0332622 -0.0204095 0.0164048 0.00678883 -0.0219678 0.0161716 0.0146496 -0.0213998 0.0171357 
0.0224202 -0.0229056 0.0167251 -0.0179036 -0.0182385 0.0186371 -0.0109347 -0.0163007 0.0154016 
-0.00141195 -0.019018 0.0168633 0.034802 -0.0181415 0.0176707 0.0425393 -0.0176335 0.0159423 
-0.0302093 -0.0126816 0.016857 -0.0223244 -0.0118308 0.0170157 0.00500508 -0.0144981 0.0180767 
0.0178763 -0.0141817 0.0160093 0.0448193 -0.0105438 0.0186677 -0.0147762 -0.00936652 0.0162205 
0.00330265 -0.00729478 0.0153593 0.0115109 -0.00990793 0.0180626 0.0233442 -0.0088889 0.0183644 
0.0330889 -0.00540872 0.0173864 -0.0460639 -0.000317785 0.0162238 -0.0287198 -0.00400702 0.0167652 
-0.0208758 -0.00390432 0.0153582 -0.0128479 -0.00162727 0.0181356 -0.00306435 -0.00280388 0.0165503 
0.0170768 -0.00407615 0.0174696 0.0261073 -0.00173612 0.0163191 0.0460212 -0.0027184 0.0184985 
-0.0264629 0.00355794 0.0158481 -0.0193591 0.00279968 0.0193414 0.00493928 0.00271405 0.0162353 
0.0122298 0.00192364 0.0192962 0.0199812 0.00331664 0.0168971 0.0387749 0.000149114 0.0173462 
-0.045042 0.00937937 0.017674 -0.0331587 0.00652494 0.0189565 -0.00260286 0.00500162 0.0151864 
[...]
POINT_DATA 890
FIELD FieldData 9
id 1 890 int
328 395 635 139 347 203 196 236 800 
586 677 582 256 398 603 449 396 177 
871 806 739 153 532 627 810 477 860 
28 388 471 90 611 521 602 102 671 
169 740 351 190 666 39 145 249 120 
876 755 634 176 134 46 275 731 62 
11 830 119 833 385 329 189 702 199 
506 483 873 675 307 82 197 319 738 
538 654 657 473 159 274 450 327 174 
2 10 276 575 787 426 534 14 858 
138 180 432 531 418 224 278 724 842 
430 662 462 35 469 408 298 326 53 
89 349 706 4 742 641 416 546 859 
650 101 883 699 85 216 198 601 192 
874 323 759 333 696 230 520 625 401 
265 244 461 227 96 804 698 67 116 
118 390 594 440 680 242 886 37 596 
231 376 179 613 17 65 598 713 309 
571 80 162 284 97 52 692 429 206 
111 59 630 66 200 86 142 664 649 
779 667 674 113 33 55 413 879 341 
884 411 553 862 535 498 682 563 105 
259 44 257 422 250 659 530 570 849 
50 708 182 482 827 217 632 175 766 
363 195 809 140 653 317 816 228 689 
672 508 16 854 316 836 19 150 478 
767 748 222 869 123 405 795 41 258 
38 737 289 338 207 687 733 392 608 
851 690 409 776 467 778 358 218 167 
526 794 184 618 780 310 544 799 523 
622 888 758 221 268 393 70 103 386 
76 488 354 515 668 636 855 322 252 
215 141 599 348 253 588 366 606 676 
295 5 367 514 568 628 121 18 239 
350 679 541 821 262 383 797 619 375 
694 64 808 273 313 77 171 765 460 
229 796 715 431 47 503 791 269 771 
489 501 438 751 364 7 377 314 63 
726 707 623 399 420 519 365 652 545 
812 382 880 743 337 149 504 673 126 
110 243 56 612 318 824 373 479 499 
640 404 864 108 286 782 517 336 240 
474 370 651 343 848 875 237 30 480 
729 21 557 414 576 339 94 133 99 
406 645 585 292 223 811 464 448 749 
847 87 132 695 465 397 251 104 505 
456 655 315 311 609 22 308 92 558 
281 29 331 446 378 468 746 166 129 
455 380 574 578 547 254 727 844 597 
114 428 642 881 266 73 444 725 248 
125 723 42 870 419 802 722 669 290 
210 638 721 435 75 187 486 320 495 
688 451 291 417 744 700 701 271 803 
424 757 280 332 829 801 616 840 736 
160 507 878 407 205 882 605 433 297 
445 164 368 260 374 246 127 720 683 
12 463 852 107 510 850 188 761 522 
660 161 136 838 300 219 579 115 122 
34 793 615 572 648 334 381 705 714 
285 128 775 421 58 837 494 610 226 
54 528 362 559 61 691 518 734 148 
845 154 524 91 208 458 71 584 484 
403 466 556 670 491 36 26 352 437 
637 457 785 157 369 345 856 772 57 
173 550 529 83 238 43 853 402 644 
817 728 452 213 581 647 885 68 40 
423 475 788 335 857 537 209 562 25 
1 212 798 288 470 681 72 360 88 
357 770 502 106 711 747 492 626 600 
6 820 124 569 69 865 784 774 454 
325 781 663 513 344 321 255 867 294 
389 709 684 819 245 685 567 697 191 
283 211 135 777 735 591 202 573 84 
604 866 704 45 193 490 117 394 359 
527 493 340 371 78 346 225 629 552 
763 178 263 826 3 877 439 589 220 
8 272 306 442 583 20 436 487 590 
686 716 789 9 658 481 756 270 564 
863 807 633 186 23 15 305 261 264 
112 718 384 233 561 143 754 790 303 
500 304 764 631 768 425 769 98 890 
509 516 678 580 355 302 361 282 427 
533 646 342 185 434 732 485 593 301 
496 717 412 656 183 511 27 146 100 
889 839 170 745 577 51 24 312 710 
786 815 296 158 277 614 299 551 201 
643 540 165 555 621 752 130 549 592 
400 441 93 81 247 624 512 324 560 
156 459 773 168 565 805 566 607 172 
443 476 753 356 887 372 241 841 730 
95 163 415 147 32 822 391 144 330 
548 762 825 79 410 204 279 194 49 
741 543 665 818 453 542 131 587 813 
719 155 750 353 48 831 137 828 214 
232 287 872 783 843 846 703 235 539 
639 234 595 661 712 814 832 792 497 
447 60 834 74 151 868 181 536 760 
109 293 387 525 617 823 152 693 620 
861 554 13 472 267 379 31 835 
type 1 890 int
1 1 1 1 1 1 1 1 1 
1 1 1 1 1 1 1 1 1 
1 1 1 1 1 1 1 1 1 
1 1 1 1 1 1 1 1 1 
1 1 1 1 1 1 1 1 1 
1 1 1 1 1 1 1 1 1 
1 1 1 1 1 1 1 1 1 
1 1 1 1 1 1 1 1 1 
1 1 1 1 1 1 1 1 1 
1 1 1 1 1 1 1 1 1 
1 1 1 1 1 1 1 1 1 
1 1 1 1 1 1 1 1 1 
1 1 1 1 1 1 1 1 1 
1 1 1 1 1 1 1 1 1 
1 1 1 1 1 1 1 1 1 
1 1 1 1 1 1 1 1 1 
1 1 1 1 1 1 1 1 1 
1 1 1 1 1 1 1 1 1 
1 1 1 1 1 1 1 1 1 
1 1 1 1 1 1 1 1 1 
1 1 1 1 1 1 1 1 1 
1 1 1 1 1 1 1 1 1 
1 1 1 1 1 1 1 1 1 
1 1 1 1 1 1 1 1 1 
1 1 1 1 1 1 1 1 1 
1 1 1 1 1 1 1 1 1 
1 1 1 1 1 1 1 1 1 
1 1 1 1 1 1 1 1 1 
1 1 1 1 1 1 1 1 1 
1 1 1 1 1 1 1 1 1 
1 1 1 1 1 1 1 1 1 
1 1 1 1 1 1 1 1 1 
1 1 1 1 1 1 1 1 1 
1 1 1 1 1 1 1 1 1 
1 1 1 1 1 1 1 1 1 
1 1 1 1 1 1 1 1 1 
1 1 1 1 1 1 1 1 1 
1 1 1 1 1 1 1 1 1 
1 1 1 1 1 1 1 1 1 
1 1 1 1 1 1 1 1 1 
1 1 1 1 1 1 1 1 1 
1 1 1 1 1 1 1 1 1 
1 1 1 1 1 1 1 1 1 
1 1 1 1 1 1 1 1 1 
1 1 1 1 1 1 1 1 1 
1 1 1 1 1 1 1 1 1 
1 1 1 1 1 1 1 1 1 
1 1 1 1 1 1 1 1 1 
1 1 1 1 1 1 1 1 1 
1 1 1 1 1 1 1 1 1 
1 1 1 1 1 1 1 1 1 
1 1 1 1 1 1 1 1 1 
1 1 1 1 1 1 1 1 1 
1 1 1 1 1 1 1 1 1 
1 1 1 1 1 1 1 1 1 
1 1 1 1 1 1 1 1 1 
1 1 1 1 1 1 1 1 1 
1 1 1 1 1 1 1 1 1 
1 1 1 1 1 1 1 1 1 
1 1 1 1 1 1 1 1 1 
1 1 1 1 1 1 1 1 1 
1 1 1 1 1 1 1 1 1 
1 1 1 1 1 1 1 1 1 
1 1 1 1 1 1 1 1 1 
1 1 1 1 1 1 1 1 1 
1 1 1 1 1 1 1 1 1 
1 1 1 1 1 1 1 1 1 
1 1 1 1 1 1 1 1 1 
1 1 1 1 1 1 1 1 1 
1 1 1 1 1 1 1 1 1 
1 1 1 1 1 1 1 1 1 
1 1 1 1 1 1 1 1 1 
1 1 1 1 1 1 1 1 1 
1 1 1 1 1 1 1 1 1 
1 1 1 1 1 1 1 1 1 
1 1 1 1 1 1 1 1 1 
1 1 1 1 1 1 1 1 1 
1 1 1 1 1 1 1 1 1 
1 1 1 1 1 1 1 1 1 
1 1 1 1 1 1 1 1 1 
1 1 1 1 1 1 1 1 1 
1 1 1 1 1 1 1 1 1 
1 1 1 1 1 1 1 1 1 
1 1 1 1 1 1 1 1 1 
1 1 1 1 1 1 1 1 1 
1 1 1 1 1 1 1 1 1 
1 1 1 1 1 1 1 1 1 
1 1 1 1 1 1 1 1 1 
1 1 1 1 1 1 1 1 1 
1 1 1 1 1 1 1 1 1 
1 1 1 1 1 1 1 1 1 
1 1 1 1 1 1 1 1 1 
1 1 1 1 1 1 1 1 1 
1 1 1 1 1 1 1 1 1 
1 1 1 1 1 1 1 1 1 
1 1 1 1 1 1 1 1 1 
1 1 1 1 1 1 1 1 1 
1 1 1 1 1 1 1 1 1 
1 1 1 1 1 1 1 1 
i 3 890 int
0 0 0 0 0 0 0 0 0 
0 0 0 0 0 0 0 0 0 
0 0 0 0 0 0 0 0 0 
0 0 0 0 0 0 0 0 0 
0 0 0 0 0 0 0 0 0 
0 0 0 0 0 0 0 0 0 
0 0 0 0 0 0 0 0 0 
0 0 0 0 0 0 0 0 0 
0 0 0 0 0 0 0 0 0 
0 0 0 0 0 0 0 0 0 
0 0 0 0 0 0 0 0 0 
0 0 0 0 0 0 0 0 0 
0 0 0 0 0 0 0 0 0 
0 0 0 0 0 0 0 0 0 
0 0 0 0 0 0 0 0 0 
0 0 0 0 0 0 0 0 0 
0 0 0 0 0 0 0 0 0 
0 0 0 0 0 0 0 0 0 
0 0 0 0 0 0 0 0 0 
0 0 0 0 0 0 0 0 0 
0 0 0 0 0 0 0 0 0 
0 0 0 0 0 0 0 0 0 
0 0 0 0 0 0 0 0 0 
0 0 0 0 0 0 0 0 0 
0 0 0 0 0 0 0 0 0 
0 0 0 0 0 0 0 0 0 
0 0 0 0 0 0 0 0 0 
0 0 0 0 0 0 0 0 0 
0 0 0 0 0 0 0 0 0 
0 0 0 0 0 0 0 0 0 
0 0 0 0 0 0 0 0 0 
0 0 0 0 0 0 0 0 0 
0 0 0 0 0 0 0 0 0 
0 0 0 0 0 0 0 0 0 
0 0 0 0 0 0 0 0 0 
0 0 0 0 0 0 0 0 0 
0 0 0 0 0 0 0 0 0 
0 0 0 0 0 0 0 0 0 
0 0 0 0 0 0 0 0 0 
0 0 0 0 0 0 0 0 0 
0 0 0 0 0 0 0 0 0 
0 0 0 0 0 0 0 0 0 
0 0 0 0 0 0 0 0 0 
0 0 0 0 0 0 0 0 0 
0 0 0 0 0 0 0 0 0 
0 0 0 0 0 0 0 0 0 
0 0 0 0 0 0 0 0 0 
0 0 0 0 0 0 0 0 0 
0 0 0 0 0 0 0 0 0 
0 0 0 0 0 0 0 0 0 
0 0 0 0 0 0 0 0 0 
0 0 0 0 0 0 0 0 0 
0 0 0 0 0 0 0 0 0 
0 0 0 0 0 0 0 0 0 
0 0 0 0 0 0 0 0 0 
0 0 0 0 0 0 0 0 0 
0 0 0 0 0 0 0 0 0 
0 0 0 0 0 0 0 0 0 
0 0 0 0 0 0 0 0 0 
0 0 0 0 0 0 0 0 0 
0 0 0 0 0 0 0 0 0 
0 0 0 0 0 0 0 0 0 
0 0 0 0 0 0 0 0 0 
0 0 0 0 0 0 0 0 0 
0 0 0 0 0 0 0 0 0 
0 0 0 0 0 0 0 0 0 
0 0 0 0 0 0 0 0 0 
0 0 0 0 0 0 0 0 0 
0 0 0 0 0 0 0 0 0 
0 0 0 0 0 0 0 0 0 
0 0 0 0 0 0 0 0 0 
0 0 0 0 0 0 0 0 0 
0 0 0 0 0 0 0 0 0 
0 0 0 0 0 0 0 0 0 
0 0 0 0 0 0 0 0 0 
0 0 0 0 0 0 0 0 0 
0 0 0 0 0 0 0 0 0 
0 0 0 0 0 0 0 0 0 
0 0 0 0 0 0 0 0 0 
0 0 0 0 0 0 0 0 0 
0 0 0 0 0 0 0 0 0 
0 0 0 0 0 0 0 0 0 
0 0 0 0 0 0 0 0 0 
0 0 0 0 0 0 0 0 0 
0 0 0 0 0 0 0 0 0 
0 0 0 0 0 0 0 0 0 
0 0 0 0 0 0 0 0 0 
0 0 0 0 0 0 0 0 0 
0 0 0 0 0 0 0 0 0 
0 0 0 0 0 0 0 0 0 
0 0 0 0 0 0 0 0 0 
0 0 0 0 0 0 0 0 0 
0 0 0 0 0 0 0 0 0 
0 0 0 0 0 0 0 0 0 
0 0 0 0 0 0 0 0 0 
0 0 0 0 0 0 0 0 0 
0 0 0 0 0 0 0 0 0 
0 0 0 0 0 0 0 0 0 
0 0 0 0 0 0 0 0 0 
0 0 0 0 0 0 0 0 0 
0 0 0 0 0 0 0 0 0 
0 0 0 0 0 0 0 0 0 
0 0 0 0 0 0 0 0 0 
0 0 0 0 0 0 0 0 0 
0 0 0 0 0 0 0 0 0 
0 0 0 0 0 0 0 0 0 
0 0 0 0 0 0 0 0 0 
0 0 0 0 0 0 0 0 0 
0 0 0 0 0 0 0 0 0 
0 0 0 0 0 0 0 0 0 
0 0 0 0 0 0 0 0 0 
0 0 0 0 0 0 0 0 0 
0 0 0 0 0 0 0 0 0 
0 0 0 0 0 0 0 0 0 
0 0 0 0 0 0 0 0 0 
0 0 0 0 0 0 0 0 0 
0 0 0 0 0 0 0 0 0 
0 0 0 0 0 0 0 0 0 
0 0 0 0 0 0 0 0 0 
0 0 0 0 0 0 0 0 0 
0 0 0 0 0 0 0 0 0 
0 0 0 0 0 0 0 0 0 
0 0 0 0 0 0 0 0 0 
0 0 0 0 0 0 0 0 0 
0 0 0 0 0 0 0 0 0 
0 0 0 0 0 0 0 0 0 
0 0 0 0 0 0 0 0 0 
0 0 0 0 0 0 0 0 0 
0 0 0 0 0 0 0 0 0 
0 0 0 0 0 0 0 0 0 
0 0 0 0 0 0 0 0 0 
0 0 0 0 0 0 0 0 0 
0 0 0 0 0 0 0 0 0 
0 0 0 0 0 0 0 0 0 
0 0 0 0 0 0 0 0 0 
0 0 0 0 0 0 0 0 0 
0 0 0 0 0 0 0 0 0 
0 0 0 0 0 0 0 0 0 
0 0 0 0 0 0 0 0 0 
0 0 0 0 0 0 0 0 0 
0 0 0 0 0 0 0 0 0 
0 0 0 0 0 0 0 0 0 
0 0 0 0 0 0 0 0 0 
0 0 0 0 0 0 0 0 0 
0 0 0 0 0 0 0 0 0 
0 0 0 0 0 0 0 0 0 
0 0 0 0 0 0 0 0 0 
0 0 0 0 0 0 0 0 0 
0 0 0 0 0 0 0 0 0 
0 0 0 0 0 0 0 0 0 
0 0 0 0 0 0 0 0 0 
0 0 0 0 0 0 0 0 0 
0 0 0 0 0 0 0 0 0 
0 0 0 0 0 0 0 0 0 
0 0 0 0 0 0 0 0 0 
0 0 0 0 0 0 0 0 0 
0 0 0 0 0 0 0 0 0 
0 0 0 0 0 0 0 0 0 
0 0 0 0 0 0 0 0 0 
0 0 0 0 0 0 0 0 0 
0 0 0 0 0 0 0 0 0 
0 0 0 0 0 0 0 0 0 
0 0 0 0 0 0 0 0 0 
0 0 0 0 0 0 0 0 0 
0 0 0 0 0 0 0 0 0 
0 0 0 0 0 0 0 0 0 
0 0 0 0 0 0 0 0 0 
0 0 0 0 0 0 0 0 0 
0 0 0 0 0 0 0 0 0 
0 0 0 0 0 0 0 0 0 
0 0 0 0 0 0 0 0 0 
0 0 0 0 0 0 0 0 0 
0 0 0 0 0 0 0 0 0 
0 0 0 0 0 0 0 0 0 
0 0 0 0 0 0 0 0 0 
0 0 0 0 0 0 0 0 0 
0 0 0 0 0 0 0 0 0 
0 0 0 0 0 0 0 0 0 
0 0 0 0 0 0 0 0 0 
0 0 0 0 0 0 0 0 0 
0 0 0 0 0 0 0 0 0 
0 0 0 0 0 0 0 0 0 
0 0 0 0 0 0 0 0 0 
0 0 0 0 0 0 0 0 0 
0 0 0 0 0 0 0 0 0 
0 0 0 0 0 0 0 0 0 
0 0 0 0 0 0 0 0 0 
0 0 0 0 0 0 0 0 0 
0 0 0 0 0 0 0 0 0 
0 0 0 0 0 0 0 0 0 
0 0 0 0 0 0 0 0 0 
0 0 0 0 0 0 0 0 0 
0 0 0 0 0 0 0 0 0 
0 0 0 0 0 0 0 0 0 
0 0 0 0 0 0 0 0 0 
0 0 0 0 0 0 0 0 0 
0 0 0 0 0 0 0 0 0 
0 0 0 0 0 0 0 0 0 
0 0 0 0 0 0 0 0 0 
0 0 0 0 0 0 0 0 0 
0 0 0 0 0 0 0 0 0 
0 0 0 0 0 0 0 0 0 
0 0 0 0 0 0 0 0 0 
0 0 0 0 0 0 0 0 0 
0 0 0 0 0 0 0 0 0 
0 0 0 0 0 0 0 0 0 
0 0 0 0 0 0 0 0 0 
0 0 0 0 0 0 0 0 0 
0 0 0 0 0 0 0 0 0 
0 0 0 0 0 0 0 0 0 
0 0 0 0 0 0 0 0 0 
0 0 0 0 0 0 0 0 0 
0 0 0 0 0 0 0 0 0 
0 0 0 0 0 0 0 0 0 
0 0 0 0 0 0 0 0 0 
0 0 0 0 0 0 0 0 0 
0 0 0 0 0 0 0 0 0 
0 0 0 0 0 0 0 0 0 
0 0 0 0 0 0 0 0 0 
0 0 0 0 0 0 0 0 0 
0 0 0 0 0 0 0 0 0 
0 0 0 0 0 0 0 0 0 
0 0 0 0 0 0 0 0 0 
0 0 0 0 0 0 0 0 0 
0 0 0 0 0 0 0 0 0 
0 0 0 0 0 0 0 0 0 
0 0 0 0 0 0 0 0 0 
0 0 0 0 0 0 0 0 0 
0 0 0 0 0 0 0 0 0 
0 0 0 0 0 0 0 0 0 
0 0 0 0 0 0 0 0 0 
0 0 0 0 0 0 0 0 0 
0 0 0 0 0 0 0 0 0 
0 0 0 0 0 0 0 0 0 
0 0 0 0 0 0 0 0 0 
0 0 0 0 0 0 0 0 0 
0 0 0 0 0 0 0 0 0 
0 0 0 0 0 0 0 0 0 
0 0 0 0 0 0 0 0 0 
0 0 0 0 0 0 0 0 0 
0 0 0 0 0 0 0 0 0 
0 0 0 0 0 0 0 0 0 
0 0 0 0 0 0 0 0 0 
0 0 0 0 0 0 0 0 0 
0 0 0 0 0 0 0 0 0 
0 0 0 0 0 0 0 0 0 
0 0 0 0 0 0 0 0 0 
0 0 0 0 0 0 0 0 0 
0 0 0 0 0 0 0 0 0 
0 0 0 0 0 0 0 0 0 
0 0 0 0 0 0 0 0 0 
0 0 0 0 0 0 0 0 0 
0 0 0 0 0 0 0 0 0 
0 0 0 0 0 0 0 0 0 
0 0 0 0 0 0 0 0 0 
0 0 0 0 0 0 0 0 0 
0 0 0 0 0 0 0 0 0 
0 0 0 0 0 0 0 0 0 
0 0 0 0 0 0 0 0 0 
0 0 0 0 0 0 0 0 0 
0 0 0 0 0 0 0 0 0 
0 0 0 0 0 0 0 0 0 
0 0 0 0 0 0 0 0 0 
0 0 0 0 0 0 0 0 0 
0 0 0 0 0 0 0 0 0 
0 0 0 0 0 0 0 0 0 
0 0 0 0 0 0 0 0 0 
0 0 0 0 0 0 0 0 0 
0 0 0 0 0 0 0 0 0 
0 0 0 0 0 0 0 0 0 
0 0 0 0 0 0 0 0 0 
0 0 0 0 0 0 0 0 0 
0 0 0 0 0 0 0 0 0 
0 0 0 0 0 0 0 0 0 
0 0 0 0 0 0 0 0 0 
0 0 0 0 0 0 0 0 0 
0 0 0 0 0 0 0 0 0 
0 0 0 0 0 0 0 0 0 
0 0 0 0 0 0 0 0 0 
0 0 0 0 0 0 0 0 0 
0 0 0 0 0 0 0 0 0 
0 0 0 0 0 0 0 0 0 
0 0 0 0 0 0 0 0 0 
0 0 0 0 0 0 0 0 0 
0 0 0 0 0 0 0 0 0 
0 0 0 0 0 0 0 0 0 
0 0 0 0 0 0 0 0 0 
0 0 0 0 0 0 0 0 0 
0 0 0 0 0 0 0 0 0 
0 0 0 0 0 0 0 0 0 
0 0 0 0 0 0 0 0 0 
0 0 0 0 0 0 0 0 0 
0 0 0 0 0 0 0 0 0 
0 0 0 0 0 0 0 0 0 
0 0 0 0 0 0 0 0 0 
0 0 0 0 0 0 0 0 0 
0 0 0 0 0 0 
v 3 890 double
3.58865e-06 2.93841e-06 5.18411e-06 -2.35265e-06 1.56126e-06 3.62219e-06 -1.11167e-06 1.5784e-06 3.09056e-06 
7.77906e-06 3.79687e-06 9.59241e-06 2.58411e-06 5.57629e-06 3.02071e-06 -8.26492e-08 -4.00438e-06 7.9295e-08 
-8.40247e-07 -6.3258e-06 9.70507e-07 4.83685e-07 2.36878e-06 9.00792e-06 -2.46092e-06 1.06428e-05 1.15578e-05 
-8.64373e-07 1.02607e-05 1.58494e-05 6.76314e-06 9.40822e-06 6.46499e-06 -3.62896e-06 -7.71446e-06 -1.06966e-06 
-5.46664e-06 -3.19198e-06 -1.75974e-06 -1.71058e-05 -1.00931e-05 8.66468e-06 -1.05244e-05 1.4242e-05 1.70663e-05 
6.96549e-06 -1.068e-06 1.65456e-05 -2.95386e-06 -2.42167e-08 5.84972e-06 -1.45218e-05 -1.85533e-05 -5.14196e-06 
-1.84627e-05 -1.84582e-05 -1.4091e-07 -1.88831e-05 -1.13901e-05 9.87049e-06 -2.47295e-05 1.01293e-05 2.16303e-05 
-1.19561e-05 2.70094e-05 2.55577e-05 -6.99552e-06 -9.12881e-07 4.42288e-06 -3.70207e-06 -1.04175e-05 -2.01456e-06 
-4.29408e-05 -1.19468e-05 6.41796e-06 -3.18092e-05 -1.0949e-06 2.31162e-05 -2.11571e-05 2.41524e-05 3.27793e-05 
4.44008e-06 3.58834e-05 3.6957e-05 -1.03806e-05 3.38845e-06 1.53792e-05 -3.02233e-05 -1.74356e-05 2.87597e-06 
-6.02788e-05 -3.66725e-05 -2.22009e-06 -2.96452e-05 7.21527e-06 2.2338e-05 -1.59067e-05 1.19032e-05 3.02704e-05 
-0.000127309 -0.000871908 -1.54466e-06 -3.9379e-06 1.58143e-05 2.49428e-05 -9.10998e-06 -4.78966e-06 9.43071e-06 
-4.82734e-06 -4.20365e-06 5.81837e-08 -3.34982e-06 -1.16927e-05 4.943e-08 -8.21373e-06 -1.05563e-05 -2.28779e-06 
-2.61342e-05 -1.62796e-05 3.34858e-06 -4.08271e-05 -2.08669e-05 9.70288e-07 -1.54386e-05 -6.84875e-06 2.52041e-05 
-4.32677e-06 4.3646e-06 4.22302e-05 -8.0359e-06 2.7667e-05 4.11452e-05 -3.74492e-06 -3.51906e-06 2.99586e-06 
-1.97462e-05 -2.35142e-05 -3.26266e-06 -6.81856e-06 -3.57448e-05 1.38178e-05 -1.53223e-05 -1.11012e-06 2.36535e-05 
-8.7024e-06 1.39564e-05 2.04809e-05 -2.08027e-06 1.8123e-05 1.39982e-05 -3.4779e-06 -2.56419e-06 1.69205e-06 
-1.40549e-05 -1.08573e-05 6.34636e-06 -8.95934e-06 -1.15644e-05 5.39017e-06 -2.62399e-05 -2.24395e-05 7.11142e-06 
1.14352e-05 -3.438e-05 7.07959e-06 -3.68021e-06 -9.80276e-06 2.67124e-06 -4.63692e-06 1.06066e-06 2.91336e-05 
-2.18809e-06 8.07906e-06 -6.29771e-06 -9.54203e-06 5.35751e-06 -1.57065e-05 -4.42295e-06 -1.01784e-06 9.12826e-07 
-2.38471e-05 -2.29207e-06 1.75703e-06 -1.43211e-05 -9.38117e-06 -1.38158e-05 -1.08348e-05 -1.39406e-05 -3.26885e-08 
-1.2859e-05 2.67164e-07 1.04643e-05 -2.20136e-05 -6.82683e-06 7.62857e-06 -0.00246165 0.00450627 -1.97223e-07 
-1.99752e-06 -3.59622e-06 -1.60721e-07 -8.83707e-06 3.1405e-06 -3.67541e-06 -1.08398e-05 -1.08123e-05 -3.63523e-06 
-1.13288e-05 -2.97106e-06 -4.78238e-06 -1.95684e-05 2.38426e-06 1.09169e-05 -2.75893e-05 -1.09581e-06 -9.19671e-06 
-1.64171e-05 1.07723e-05 -1.33737e-05 -2.49701e-05 1.27696e-05 -1.30114e-05 -1.19915e-05 -5.31928e-06 -1.59229e-05 
-1.02521e-05 -3.25837e-06 -1.04707e-05 -1.68337e-05 6.08163e-07 -6.67434e-06 -2.39253e-05 2.2144e-07 -5.93047e-06 
-2.25448e-05 9.42155e-06 -4.05856e-06 -1.49485e-05 1.35988e-05 -2.2015e-05 -3.68265e-06 1.06385e-05 -3.37312e-06 
-5.13009e-06 1.02056e-05 -1.3664e-05 -2.3699e-05 1.62203e-05 -2.05861e-05 -9.66867e-06 2.3774e-06 -2.26249e-05 
-1.90923e-05 -8.68405e-06 -1.45753e-05 -7.09085e-06 5.36956e-06 -2.07231e-05 -3.66834e-05 1.12319e-05 -1.72319e-05 
-3.14824e-05 3.46958e-06 -1.24294e-05 -5.33299e-05 -6.25543e-06 -2.85312e-05 -1.80695e-06 8.14091e-06 -9.47598e-06 
-4.81275e-06 1.61353e-05 -7.99342e-06 -1.08557e-05 5.6646e-06 -2.13915e-05 -0.000412453 0.000484761 -1.08402e-06 
-6.61389e-06 1.81534e-05 -2.05945e-05 -1.03217e-05 1.33442e-05 -1.9e-05 -2.32153e-05 -4.60238e-06 -2.07694e-05 
-4.71703e-05 1.11771e-05 -1.75442e-05 -4.46703e-05 9.95091e-06 -3.53415e-05 -3.40815e-07 1.48147e-05 -3.44514e-05 
-2.24236e-06 6.66338e-06 -1.18256e-05 1.56928e-06 7.57321e-06 -1.07262e-05 -2.10044e-05 4.72449e-06 -1.85643e-05 
-3.51673e-05 1.66825e-05 -1.36237e-05 -2.97332e-05 1.32287e-05 -2.7718e-05 1.49013e-05 2.24095e-05 -8.34694e-06 
-1.12364e-06 2.75369e-06 -2.45594e-05 -4.82474e-06 9.80801e-06 -1.39941e-05 -1.86916e-05 1.01603e-06 -1.33929e-05 
-3.19324e-05 5.13003e-06 -1.98084e-05 -3.59774e-05 1.60205e-05 -2.55928e-05 -2.95188e-06 1.42562e-05 -1.72201e-05 
-1.6421e-05 3.08943e-07 -1.26638e-05 -2.77504e-05 -1.52156e-06 -5.48254e-06 -2.27556e-05 9.36518e-06 -1.35849e-05 
-1.31797e-05 1.55861e-05 -4.09015e-06 -2.61013e-06 6.50372e-06 -8.96028e-06 -2.96888e-05 1.38385e-06 -1.98235e-05 
4.70192e-06 6.94537e-07 7.35099e-06 -8.97807e-06 -5.36443e-06 1.16036e-05 -2.13956e-05 8.6487e-06 2.41743e-05 
-5.0972e-05 -1.9382e-05 1.8784e-05 -4.04308e-05 6.53544e-06 2.89035e-05 -3.81874e-06 3.50862e-06 3.28016e-05 
-1.37673e-05 3.58725e-05 6.58151e-05 -1.72587e-05 -1.26644e-05 2.01886e-05 -9.56275e-06 -9.6758e-06 -5.23289e-06 
-2.42441e-05 -2.64983e-05 -1.77076e-06 -1.93839e-05 -1.99632e-05 6.61852e-06 -4.09632e-05 -4.88241e-05 3.79662e-06 
-3.07478e-05 -1.23942e-05 3.06331e-05 -2.14258e-05 1.08011e-05 6.29242e-05 -1.97987e-06 -3.71719e-06 5.52225e-06 
-4.46874e-05 -3.21006e-05 -2.00577e-05 -2.10339e-05 -4.55292e-06 3.25143e-05 -1.1764e-05 -1.37283e-05 8.91691e-06 
-1.66597e-05 7.48979e-06 2.84542e-05 -1.31263e-05 5.12397e-06 -2.46509e-05 -1.54338e-05 4.23234e-06 -8.99957e-06 
-2.38677e-05 -5.4092e-07 -2.77257e-05 -2.25909e-05 -5.96628e-06 -2.4041e-05 -2.01127e-05 5.56479e-06 -3.45082e-05 
-2.06843e-05 1.15611e-06 -2.51367e-05 -4.38873e-06 9.93649e-06 -3.06552e-05 -1.91988e-05 -5.537e-06 -3.98874e-05 
-6.99872e-05 3.04042e-05 -3.51697e-05 -1.75351e-05 1.923e-05 -3.01683e-05 -3.16931e-05 6.22498e-06 -3.96939e-05 
-1.16326e-05 2.60068e-05 -5.38971e-05 -2.86317e-05 6.54874e-06 -3.53414e-05 -3.35566e-05 1.48725e-05 -3.27059e-05 
-1.90976e-06 -2.74745e-06 5.9689e-06 1.08188e-05 8.63729e-06 1.03027e-05 -1.58195e-05 -6.27033e-06 9.25589e-06 
-3.09621e-06 3.33201e-06 6.00019e-06 8.68948e-06 7.90679e-06 9.28753e-06 8.00501e-06 1.93087e-05 1.78841e-05 
-4.91552e-06 3.05186e-05 3.00822e-05 -1.23852e-05 8.68404e-06 1.39795e-05 -1.49409e-06 1.13361e-05 1.90714e-05 
-2.18561e-05 -1.2866e-05 2.07942e-06 -2.98929e-05 -1.71882e-05 -5.14722e-06 -4.29243e-05 -4.68924e-06 1.48693e-05 
-4.21072e-05 -2.83961e-05 9.40161e-06 -3.81103e-05 -1.22833e-06 2.73659e-05 -5.02151e-07 3.88884e-05 3.87876e-05 
-5.51909e-06 3.62862e-05 5.31083e-05 -1.30596e-05 -1.337e-05 -3.50201e-06 -2.7765e-05 4.43311e-05 1.26239e-05 
-1.08927e-06 4.0386e-05 3.85531e-05 -3.44574e-05 1.73167e-05 6.90262e-05 -1.22078e-05 4.36337e-06 1.22897e-05 
-5.04946e-05 -2.8945e-05 1.16279e-05 -8.04235e-05 -2.85429e-05 3.47951e-05 -6.99982e-05 -3.69579e-05 9.95557e-06 
-4.58644e-05 1.75477e-05 4.21482e-05 -3.73872e-05 2.74168e-06 2.4926e-05 -5.468e-05 -2.6784e-05 1.66511e-05 
-7.57579e-05 -6.26257e-05 -7.58854e-06 -5.839e-05 -9.02886e-07 4.56367e-05 -3.85594e-05 3.34057e-05 0.000131335 
-3.75164e-05 4.57832e-05 8.90626e-05 8.3231e-06 4.07706e-05 4.61117e-05 -7.54282e-06 -1.45961e-05 6.86602e-06 
-2.04183e-05 -2.80701e-05 -1.30575e-05 -3.40314e-05 -2.69573e-05 3.60599e-05 -6.25075e-05 2.76461e-06 4.77088e-05 
-5.05999e-05 1.10279e-05 5.9402e-05 -7.55222e-06 2.04322e-05 6.08966e-05 -1.79498e-05 -8.65884e-06 8.77986e-06 
-1.67214e-05 -1.04645e-05 2.61051e-06 -2.41795e-05 -3.4227e-05 6.44998e-06 -2.35984e-05 1.84476e-05 9.6246e-05 
-9.33632e-06 3.19138e-06 1.92151e-05 -1.74532e-05 -3.21887e-06 5.98268e-06 -2.21846e-05 -2.19721e-05 1.86944e-05 
-1.98991e-05 -3.58192e-05 -5.20145e-06 -5.06898e-05 -4.73531e-05 5.97343e-06 -3.16183e-05 2.09533e-05 7.71657e-05 
-2.22788e-05 4.23126e-06 4.8944e-05 -1.79884e-05 5.22087e-06 5.48394e-06 -1.33787e-05 -7.51721e-07 6.1234e-06 
-2.95749e-05 -1.6318e-05 1.53054e-05 -4.85424e-05 -2.1746e-05 -7.19056e-06 -4.06734e-05 -1.96875e-05 1.0395e-05 
-3.24494e-05 1.30988e-05 3.29716e-05 -2.38357e-05 -6.40413e-07 -2.16504e-06 -8.69818e-06 -5.21129e-06 1.81545e-06 
-3.98502e-05 2.28578e-05 -3.39325e-05 -3.78345e-05 -1.07114e-05 -3.73657e-05 -4.27541e-05 -5.15123e-06 -2.76912e-05 
-2.77501e-05 1.51325e-05 9.97431e-06 -2.53486e-05 -2.26887e-06 2.03703e-05 -2.55434e-05 1.30849e-05 -1.56649e-05 
-4.54231e-06 -8.25332e-08 -4.46947e-06 -2.03715e-05 3.50945e-05 -2.86181e-05 -3.3082e-05 1.72118e-05 -2.49043e-05 
-4.07218e-05 1.38319e-05 1.87771e-06 -2.33138e-05 -5.89596e-06 -1.48907e-05 -2.97477e-05 1.77481e-05 -4.33864e-05 
-1.98028e-05 2.91126e-05 -2.43937e-05 -2.37481e-05 2.79315e-05 -4.12869e-05 -2.60257e-05 -7.18808e-06 -2.23746e-05 
-4.36648e-05 2.05016e-05 -2.13365e-05 -4.49837e-05 1.10209e-05 -3.51454e-05 -7.87754e-05 -1.98288e-05 -7.0084e-05 
-1.73701e-05 2.26237e-05 -1.64197e-05 -4.08411e-06 1.36785e-05 -2.6871e-05 -2.04638e-06 3.69238e-05 -4.98309e-05 
-3.94758e-05 8.88853e-06 -4.02466e-05 -7.35142e-05 2.7702e-06 -7.11511e-05 -1.33719e-06 2.15115e-05 -2.13182e-05 