# vtk DataFile Version 4.0
Generated by LIGGGHTS
ASCII
DATASET POLYDATA
POINTS 890 float
-0.00623015 -0.0452713 0.00386292 0.00341845 -0.0459794 0.00388775 -0.0160883 -0.0432543 0.00407595 
0.00871714 -0.0401363 0.00387636 0.0159094 -0.0433782 0.00373022 -0.0251833 -0.0387308 0.0040532 
0.000967684 -0.0383974 0.00396257 0.0230669 -0.0398738 0.00381777 -0.0314468 -0.0338197 0.00391913 
-0.019522 -0.0334544 0.00383253 -0.00810932 -0.0333707 0.00399846 0.00819505 -0.0322248 0.00394888 
0.0166947 -0.0352017 0.00371116 0.032871 -0.0323562 0.00400428 -0.0339983 -0.0263425 0.00409398 
-0.0262805 -0.0279358 0.00377666 -0.0139488 -0.0279549 0.0039006 -0.00231603 -0.027908 0.00379348 
0.00525049 -0.0248468 0.00398331 0.0132634 -0.0261951 0.00412383 0.020959 -0.0283005 0.00432203 
0.0386173 -0.0250835 0.00393991 -0.0404848 -0.0220213 0.00397826 -0.0286828 -0.0204001 0.00398012 
-0.0207822 -0.0222584 0.0039584 -0.00962356 -0.0203543 0.00400103 -0.00167233 -0.0199858 0.00395469 
0.0239763 -0.020795 0.004016 0.030728 -0.024786 0.00378527 0.00859483 -0.0173931 0.00388316 
0.016321 -0.0189004 0.00395846 0.0346587 -0.0164571 0.00397544 0.0423601 -0.0181187 0.00390307 
-0.0443599 -0.0109338 0.00408855 -0.0374182 -0.0146803 0.00411257 -0.0296955 -0.0125081 0.00388159 
-0.0219667 -0.0145524 0.00379329 -0.0148976 -0.0108589 0.00387492 -0.00611901 -0.0130934 0.00397808 
0.00179431 -0.0125191 0.00392415 0.0136526 -0.0109161 0.00396699 0.021673 -0.0130187 0.00391757 
0.0448979 -0.0107033 0.00396372 -0.0216055 -0.00669432 0.00411373 -0.000287056 -0.00470573 0.00404831 
0.0208067 -0.00517794 0.00392012 -0.0408745 -0.00380707 0.00384435 -0.0291127 -0.00444659 0.00385763 
-0.0146082 -0.00294047 0.00374229 0.00757533 -0.00426037 0.00394454 0.0283362 -0.00293938 0.00388539 
0.0405178 -0.0042423 0.00400076 -0.0456357 0.00251591 0.0040237 -0.0318518 0.00294528 0.00428135 
-0.0213883 0.00169585 0.00386673 -0.00516221 0.00182801 0.00390444 0.00315237 0.00236604 0.00404785 
0.0110937 0.00401588 0.00387099 0.0226581 0.00250914 0.00390094 0.0460575 0.00132073 0.0039357 
-0.0375481 0.0084738 0.00395033 -0.0203531 0.00960617 0.0039098 -0.00174099 0.00906841 0.00401899 
0.0314258 0.00774593 0.00387793 0.0393488 0.00724399 0.00388624 -0.0302592 0.011129 0.00372142 
-0.00936735 0.0111987 0.00390003 0.0132819 0.012813 0.00384325 0.0206668 0.0100541 0.00394468 
0.0272795 0.0144544 0.00400461 0.0359087 0.0143401 0.00389691 0.0438199 0.0142318 0.0040313 
-0.0424522 0.017827 0.00394158 -0.0336316 0.0187623 0.00400968 -0.0252863 0.017942 0.00395872 
-0.0157168 0.0159638 0.00390105 -0.00473994 0.0183261 0.00390598 0.00420207 0.0176644 0.00396538 
0.0198133 0.0178705 0.00394812 -0.0205604 0.0242402 0.00381908 -0.0121717 0.0246679 0.00389457 
-0.000190104 0.0247671 0.00405797 0.00769638 0.0248716 0.00391116 0.0277475 0.0223775 0.00392666 
0.0403314 0.0218609 0.00377115 -0.0388614 0.0247802 0.00405339 -0.0262474 0.0298972 0.00383274 
0.0347356 0.0289662 0.00431171 -0.0340843 0.0309868 0.00381442 -0.0181249 0.0323953 0.00398747 
-0.00502593 0.0309565 0.00395104 0.00348211 0.0317401 0.00389302 0.0113819 0.0318805 0.00388599 
0.0190594 0.0337457 0.00403054 0.0260848 0.0300944 0.00390698 -0.0253901 0.0378524 0.00432923 
-0.0121676 0.0379614 0.0038125 0.00353175 0.0396326 0.00381847 0.011357 0.0400942 0.00395548 
0.0257243 0.0381628 0.00389911 -0.0188092 0.0421304 0.003958 0.0188929 0.042115 0.00394811 
-0.00895831 0.0452081 0.00378462 -0.000738127 0.0461174 0.00395163 -0.0205007 -0.0405933 0.0101453 
-0.0137657 -0.0367525 0.0084794 -0.00537768 -0.038937 0.00879934 -0.0266919 -0.0334081 0.0100829 
0.000978702 -0.0324746 0.0091636 0.0259372 -0.0334563 0.0073941 -0.020809 -0.028056 0.00940068 
-0.00812538 -0.0264708 0.00898983 -0.0150166 -0.0225898 0.00955084 -0.0430026 -0.0167545 0.00933733 
-0.0338926 -0.0188833 0.00970036 -0.0121014 -0.0151694 0.00976422 0.00344043 -0.0177394 0.00967047 
0.0283179 -0.0161063 0.00864991 0.00747093 -0.0103298 0.0090384 -0.0351756 -0.00780872 0.00739256 
-0.00771863 -0.00573347 0.00652466 0.0259751 -0.00850809 0.0089366 0.0340727 -0.00870016 0.00477913 
0.0143592 -0.00218761 0.00741842 -0.0388492 0.00224015 0.00844505 -0.01398 0.00483894 0.00451887 
0.0170538 0.00512109 0.00905109 0.0281543 0.00339008 0.0095389 0.0349024 0.000968542 0.00568236 
-0.0258567 0.00748012 0.00922372 0.045573 0.00760484 0.00863288 -0.0449754 0.0102469 0.00551277 
-0.0375682 0.0143799 0.0091708 -0.000618252 0.0150815 0.00989015 0.00603591 0.00999919 0.0051135 
0.0129481 0.0199855 0.00727301 -0.0296038 0.0242117 0.00831018 0.0340569 0.0203948 0.0085125 
0.0193586 0.0257674 0.00396927 -0.00913351 0.0341427 0.00986633 0.0308569 0.0343389 0.0085293 
-0.00430475 0.0388234 0.00388005 0.00753706 0.0362454 0.00956641 0.00637047 0.0453677 0.00850406 
-0.00149088 -0.0462252 0.0100809 0.00952136 -0.0449936 0.0106019 -0.0110244 -0.0446528 0.00998427 
-0.00982331 -0.0385521 0.0153564 0.00135151 -0.0395453 0.0127018 0.00866061 -0.0363458 0.0107147 
0.0159546 -0.0394694 0.0103514 0.0237142 -0.0396401 0.0116565 -0.0343815 -0.0308296 0.0107037 
-0.00542742 -0.0321907 0.0138388 0.0148962 -0.0315526 0.0102742 0.0225115 -0.0317937 0.0141884 
-0.0289262 -0.0248832 0.0109701 -0.0139778 -0.030098 0.0129664 -6.67622e-05 -0.024668 0.0106038 
0.00747027 -0.028196 0.0108743 0.0264458 -0.0260716 0.0102601 0.0349403 -0.0298849 0.0113168 
-0.0394956 -0.0239222 0.0116637 0.0189213 -0.024629 0.011407 0.0332214 -0.0221712 0.0107166 
0.041054 -0.0210757 0.0110357 -0.0240202 -0.0185824 0.0102908 -0.00484519 -0.0180646 0.0108646 
0.0118765 -0.0212771 0.0101936 0.0204995 -0.0169272 0.0106126 -0.0386022 -0.0116772 0.0132843 
-0.0206181 -0.0112856 0.0106668 -0.00159894 -0.00944996 0.0103535 0.0182439 -0.00919416 0.0102542 
0.0361944 -0.0149951 0.0116931 0.0439915 -0.0137363 0.0114896 -0.0284041 -0.00958268 0.0111593 
-0.0085808 -0.00917104 0.0140256 0.0326253 -0.00831857 0.0131577 0.0456797 -0.00620738 0.0104913 
-0.045697 -0.00318023 0.010122 -0.0334206 -0.00176419 0.0125704 -0.02608 -0.000392926 0.00992065 
-0.0144652 -0.00456284 0.0113336 -0.00507543 -0.000170676 0.0114584 0.00312468 -0.0021119 0.0108072 
0.0101407 -0.00456756 0.0138782 0.0218185 -0.00118802 0.0107563 0.0336598 -0.000624206 0.0132944 
-0.0191692 0.00337898 0.0112068 0.00936179 0.00316433 0.0114681 0.0424973 0.000817515 0.0110751 
-0.0457125 0.00481997 0.0116191 -0.0337313 0.00762424 0.0108684 -0.014081 0.0100063 0.0104554 
-0.00603243 0.00858159 0.0108247 0.00141173 0.00587081 0.0109848 0.036944 0.00624916 0.0113445 
-0.0441251 0.0125736 0.0130743 -0.0207799 0.0148851 0.00986428 0.00750621 0.0107325 0.0129664 
0.0156273 0.013474 0.0113436 0.0249012 0.0109192 0.0109234 0.0326233 0.0127823 0.0109027 
0.0406113 0.013076 0.0112476 -0.0334334 0.0199894 0.0139823 -0.0287525 0.0148226 0.0103241 
-0.00885521 0.0159953 0.0102218 0.00635279 0.0185633 0.0115472 0.0268232 0.0185806 0.0110156 
-0.0408327 0.0213591 0.0110015 -0.0222348 0.0244113 0.0115737 -0.0152609 0.0207867 0.010154 
-0.00642673 0.0238628 0.00982758 0.0197047 0.021906 0.0110642 0.0412551 0.0208685 0.0114659 
-0.0359512 0.0277369 0.0114723 -0.0127479 0.0277698 0.0128255 -0.00103005 0.0279883 0.0139381 
0.00619981 0.0286292 0.0106809 0.0146456 0.0280126 0.0098944 0.0224286 0.0294411 0.0107565 
0.029998 0.0268384 0.0106278 -0.0303908 0.0346425 0.00964744 -0.0229528 0.0321382 0.0105114 
-0.000444111 0.0347951 0.00991058 -0.0170251 0.037358 0.01002 -0.00503817 0.0389228 0.0145412 
0.0153015 0.0358429 0.0113225 -0.0129499 0.0442526 0.0104754 0.01547 0.0433268 0.0140931 
0.0221303 0.0404163 0.0108515 -0.00507205 0.0458041 0.0105085 -0.00638559 -0.0456865 0.0163158 
-0.0162161 -0.0431473 0.016275 0.00695528 -0.0417246 0.0180568 0.015207 -0.0436166 0.0170965 
-0.0231998 -0.0397415 0.0182468 0.0161014 -0.0357204 0.0171502 0.0233158 -0.0392776 0.0195763 
-0.0287852 -0.0332923 0.0177304 -0.0211943 -0.032292 0.0160522 0.0039966 -0.0332714 0.0163162 
0.0297164 -0.0351955 0.014008 -0.0364903 -0.027833 0.0177342 0.0131891 -0.0268666 0.0162057 
0.0384125 -0.0245191 0.0176188 -0.0291769 -0.0252538 0.0194645 -0.0221947 -0.023868 0.0159514 
-0.00575103 -0.0243112 0.0161885 0.00560009 -0.0222418 0.0159453 0.0244404 -0.0243324 0.0176973 
0.0320194 -0.019208 0.0180145 -0.0428829 -0.016445 0.0178742 -0.0293975 -0.0173315 0.0160613 
-0.0176164 -0.0174361 0.0147468 -0.00966755 -0.01714 0.0169887 0.042544 -0.0176086 0.0183864 
-0.0327314 -0.0105734 0.0183753 -0.0230787 -0.0129172 0.0179479 -0.0157465 -0.00979291 0.0173257 
-7.53559e-05 -0.0147763 0.0160142 0.00927253 -0.0151143 0.0151224 0.0176139 -0.0134681 0.0171206 
0.0255705 -0.0130232 0.0153539 0.00320568 -0.00772319 0.0163182 0.0397442 -0.0103976 0.0171122 
0.0458216 -0.00576568 0.0188987 -0.0460686 -0.000555746 0.0176369 -0.0390976 -0.00479007 0.017143 
-0.0283384 -0.00337361 0.0186603 -0.0216356 -0.0047296 0.0147795 -0.0142509 -0.00194095 0.0187735 
-0.00397095 -0.00391897 0.0181963 0.0176544 -0.00433992 0.016546 0.0260927 -0.00509522 0.0161315 
0.0396171 -0.00104137 0.018267 -0.0392376 0.00363404 0.0162399 -0.0281337 0.00418255 0.0160512 
-0.0110913 0.00397018 0.01465 -0.00328069 0.00447726 0.0175441 0.00450596 0.00354005 0.0177145 
0.0123223 0.00117437 0.0189135 0.0218708 0.00221542 0.0180552 0.0294001 0.0053637 0.0171764 
-0.017297 0.00800605 0.0175071 0.0162919 0.00757524 0.0165378 0.0360158 0.00954757 0.0185434 
0.045497 0.00779487 0.0167746 -0.0369681 0.0131392 0.0169094 -0.0286234 0.0117857 0.0175641 
0.0020109 0.0133633 0.0192802 0.0213184 0.0160821 0.0163858 0.0292676 0.014564 0.0177723 
-0.0241725 0.0182399 0.0159867 -0.0155658 0.0155025 0.0160246 -0.00035332 0.0203063 0.0158962 
0.0112262 0.0160596 0.0174322 0.0371693 0.0171431 0.0170822 -0.0395687 0.0234 0.0186676 
-0.0171147 0.0231868 0.0175289 -0.00931963 0.0205037 0.0167477 0.00817679 0.0243513 0.0169812 
0.0159125 0.0254396 0.0172261 0.0236615 0.0241429 0.0175778 0.0311734 0.0221542 0.0167644 
[...]
POINT_DATA 890
FIELD FieldData 9
id 1 890 int
635 328 395 800 139 203 236 347 582 
256 398 603 586 396 177 871 806 739 
860 153 449 532 627 471 810 477 611 
28 388 521 602 671 169 740 351 190 
666 755 39 634 145 249 46 876 830 
176 275 731 62 119 134 385 329 189 
702 199 506 319 483 873 307 657 197 
738 538 654 473 534 274 450 327 174 
2 10 276 575 787 426 14 180 224 
432 278 531 858 138 418 430 662 462 
35 469 408 298 842 53 89 641 416 
706 4 546 742 859 596 196 101 713 
883 677 699 85 630 192 874 90 413 
102 696 323 11 879 120 265 401 82 
827 570 833 708 461 675 175 698 159 
118 67 390 724 795 326 349 258 733 
650 37 231 467 376 613 179 17 598 
80 162 284 111 571 66 52 216 206 
97 692 200 601 86 664 198 779 113 
759 333 553 341 884 411 33 862 257 
230 682 520 563 659 625 105 259 44 
250 530 244 849 50 227 96 482 217 
632 804 363 228 195 809 140 16 653 
317 816 689 508 19 116 594 316 672 
836 123 150 478 767 405 440 222 869 
41 680 623 38 338 207 737 242 886 
851 690 409 608 218 167 776 309 358 
65 794 544 799 184 59 780 888 429 
103 523 622 142 393 386 76 488 636 
55 649 515 667 855 535 676 141 498 
599 348 253 588 366 606 628 422 295 
182 239 367 514 568 679 797 350 541 
821 262 383 766 765 460 273 313 854 
171 229 796 771 715 47 501 438 503 
269 791 751 364 7 314 399 748 726 
707 519 289 420 545 365 652 687 392 
743 337 149 778 110 673 618 310 824 
526 499 404 318 221 782 268 70 758 
474 370 354 674 557 414 576 322 252 
215 645 749 695 5 464 847 87 121 
18 619 375 694 558 29 64 808 281 
77 431 455 844 331 378 446 574 489 
377 63 597 266 73 642 725 125 881 
42 419 722 812 880 243 504 320 612 
126 56 803 451 640 108 343 801 651 
848 517 240 237 729 339 875 30 668 
21 406 246 94 585 223 811 251 104 
397 308 92 510 136 311 609 22 423 
468 578 166 547 360 254 727 114 444 
775 723 802 382 721 290 669 528 435 
291 864 688 271 424 373 701 336 700 
286 637 205 445 736 448 292 882 99 
127 720 132 107 465 12 505 456 655 
660 219 746 161 129 380 793 572 122 
34 428 381 798 248 770 870 747 837 
638 226 187 486 744 495 75 417 332 
71 479 829 297 840 457 480 133 550 
374 728 850 761 529 315 522 68 788 
463 838 648 579 72 334 615 705 128 
492 600 421 362 208 344 91 845 458 
280 466 36 785 160 878 407 57 164 
345 605 368 817 3 647 188 25 212 
115 857 537 88 285 626 58 210 610 
124 559 454 867 670 604 584 154 491 
193 490 507 772 369 452 260 263 683 
581 562 475 306 681 481 288 470 209 
711 106 714 148 518 513 580 691 819 
616 26 84 173 146 856 745 43 157 
589 552 439 852 402 885 8 9 305 
186 357 233 561 112 820 494 784 774 
524 484 294 389 556 352 735 403 757 
45 238 853 277 225 644 789 877 686 
335 442 1 15 863 264 6 69 54 
865 61 663 734 321 245 684 211 567 
697 573 202 493 629 433 527 346 220 
213 178 807 459 300 633 502 23 384 
718 303 768 781 425 509 516 282 685 
191 777 100 437 496 591 340 312 704 
78 815 359 826 83 441 583 40 843 
716 400 756 272 658 261 773 443 754 
790 764 147 117 135 301 656 412 717 
577 621 551 165 299 643 555 20 324 
436 805 476 753 356 887 569 304 98 
415 13 325 678 361 665 342 283 709 
27 511 831 24 170 750 614 51 394 
763 214 814 201 590 247 752 60 168 
109 835 172 565 631 769 330 533 434 
732 485 593 646 554 131 543 287 453 
786 371 137 158 93 130 81 234 834 
512 156 270 487 566 181 564 536 693 
143 500 255 391 890 548 95 355 302 
822 185 49 818 741 379 889 48 813 
31 832 296 703 712 539 661 560 868 
620 617 823 163 241 372 204 730 79 
861 144 825 410 194 279 32 183 472 
427 587 719 839 353 866 639 235 232 
542 155 595 74 540 549 760 293 624 
497 151 872 447 152 387 792 525 841 
710 267 846 762 828 783 592 607 
type 1 890 int
1 1 1 1 1 1 1 1 1 
1 1 1 1 1 1 1 1 1 
1 1 1 1 1 1 1 1 1 
1 1 1 1 1 1 1 1 1 
1 1 1 1 1 1 1 1 1 
1 1 1 1 1 1 1 1 1 
1 1 1 1 1 1 1 1 1 
1 1 1 1 1 1 1 1 1 
1 1 1 1 1 1 1 1 1 
1 1 1 1 1 1 1 1 1 
1 1 1 1 1 1 1 1 1 
1 1 1 1 1 1 1 1 1 
1 1 1 1 1 1 1 1 1 
1 1 1 1 1 1 1 1 1 
1 1 1 1 1 1 1 1 1 
1 1 1 1 1 1 1 1 1 
1 1 1 1 1 1 1 1 1 
1 1 1 1 1 1 1 1 1 
1 1 1 1 1 1 1 1 1 
1 1 1 1 1 1 1 1 1 
1 1 1 1 1 1 1 1 1 
1 1 1 1 1 1 1 1 1 
1 1 1 1 1 1 1 1 1 
1 1 1 1 1 1 1 1 1 
1 1 1 1 1 1 1 1 1 
1 1 1 1 1 1 1 1 1 
1 1 1 1 1 1 1 1 1 
1 1 1 1 1 1 1 1 1 
1 1 1 1 1 1 1 1 1 
1 1 1 1 1 1 1 1 1 
1 1 1 1 1 1 1 1 1 
1 1 1 1 1 1 1 1 1 
1 1 1 1 1 1 1 1 1 
1 1 1 1 1 1 1 1 1 
1 1 1 1 1 1 1 1 1 
1 1 1 1 1 1 1 1 1 
1 1 1 1 1 1 1 1 1 
1 1 1 1 1 1 1 1 1 
1 1 1 1 1 1 1 1 1 
1 1 1 1 1 1 1 1 1 
1 1 1 1 1 1 1 1 1 
1 1 1 1 1 1 1 1 1 
1 1 1 1 1 1 1 1 1 
1 1 1 1 1 1 1 1 1 
1 1 1 1 1 1 1 1 1 
1 1 1 1 1 1 1 1 1 
1 1 1 1 1 1 1 1 1 
1 1 1 1 1 1 1 1 1 
1 1 1 1 1 1 1 1 1 
1 1 1 1 1 1 1 1 1 
1 1 1 1 1 1 1 1 1 
1 1 1 1 1 1 1 1 1 
1 1 1 1 1 1 1 1 1 
1 1 1 1 1 1 1 1 1 
1 1 1 1 1 1 1 1 1 
1 1 1 1 1 1 1 1 1 
1 1 1 1 1 1 1 1 1 
1 1 1 1 1 1 1 1 1 
1 1 1 1 1 1 1 1 1 
1 1 1 1 1 1 1 1 1 
1 1 1 1 1 1 1 1 1 
1 1 1 1 1 1 1 1 1 
1 1 1 1 1 1 1 1 1 
1 1 1 1 1 1 1 1 1 
1 1 1 1 1 1 1 1 1 
1 1 1 1 1 1 1 1 1 
1 1 1 1 1 1 1 1 1 
1 1 1 1 1 1 1 1 1 
1 1 1 1 1 1 1 1 1 
1 1 1 1 1 1 1 1 1 
1 1 1 1 1 1 1 1 1 
1 1 1 1 1 1 1 1 1 
1 1 1 1 1 1 1 1 1 
1 1 1 1 1 1 1 1 1 
1 1 1 1 1 1 1 1 1 
1 1 1 1 1 1 1 1 1 
1 1 1 1 1 1 1 1 1 
1 1 1 1 1 1 1 1 1 
1 1 1 1 1 1 1 1 1 
1 1 1 1 1 1 1 1 1 
1 1 1 1 1 1 1 1 1 
1 1 1 1 1 1 1 1 1 
1 1 1 1 1 1 1 1 1 
1 1 1 1 1 1 1 1 1 
1 1 1 1 1 1 1 1 1 
1 1 1 1 1 1 1 1 1 
1 1 1 1 1 1 1 1 1 
1 1 1 1 1 1 1 1 1 
1 1 1 1 1 1 1 1 1 
1 1 1 1 1 1 1 1 1 
1 1 1 1 1 1 1 1 1 
1 1 1 1 1 1 1 1 1 
1 1 1 1 1 1 1 1 1 
1 1 1 1 1 1 1 1 1 
1 1 1 1 1 1 1 1 1 
1 1 1 1 1 1 1 1 1 
1 1 1 1 1 1 1 1 1 
1 1 1 1 1 1 1 1 1 
1 1 1 1 1 1 1 1 
i 3 890 int
0 0 0 0 0 0 0 0 0 
0 0 0 0 0 0 0 0 0 
0 0 0 0 0 0 0 0 0 
0 0 0 0 0 0 0 0 0 
0 0 0 0 0 0 0 0 0 
0 0 0 0 0 0 0 0 0 
0 0 0 0 0 0 0 0 0 
0 0 0 0 0 0 0 0 0 
0 0 0 0 0 0 0 0 0 
0 0 0 0 0 0 0 0 0 
0 0 0 0 0 0 0 0 0 
0 0 0 0 0 0 0 0 0 
0 0 0 0 0 0 0 0 0 
0 0 0 0 0 0 0 0 0 
0 0 0 0 0 0 0 0 0 
0 0 0 0 0 0 0 0 0 
0 0 0 0 0 0 0 0 0 
0 0 0 0 0 0 0 0 0 
0 0 0 0 0 0 0 0 0 
0 0 0 0 0 0 0 0 0 
0 0 0 0 0 0 0 0 0 
0 0 0 0 0 0 0 0 0 
0 0 0 0 0 0 0 0 0 
0 0 0 0 0 0 0 0 0 
0 0 0 0 0 0 0 0 0 
0 0 0 0 0 0 0 0 0 
0 0 0 0 0 0 0 0 0 
0 0 0 0 0 0 0 0 0 
0 0 0 0 0 0 0 0 0 
0 0 0 0 0 0 0 0 0 
0 0 0 0 0 0 0 0 0 
0 0 0 0 0 0 0 0 0 
0 0 0 0 0 0 0 0 0 
0 0 0 0 0 0 0 0 0 
0 0 0 0 0 0 0 0 0 
0 0 0 0 0 0 0 0 0 
0 0 0 0 0 0 0 0 0 
0 0 0 0 0 0 0 0 0 
0 0 0 0 0 0 0 0 0 
0 0 0 0 0 0 0 0 0 
0 0 0 0 0 0 0 0 0 
0 0 0 0 0 0 0 0 0 
0 0 0 0 0 0 0 0 0 
0 0 0 0 0 0 0 0 0 
0 0 0 0 0 0 0 0 0 
0 0 0 0 0 0 0 0 0 
0 0 0 0 0 0 0 0 0 
0 0 0 0 0 0 0 0 0 
0 0 0 0 0 0 0 0 0 
0 0 0 0 0 0 0 0 0 
0 0 0 0 0 0 0 0 0 
0 0 0 0 0 0 0 0 0 
0 0 0 0 0 0 0 0 0 
0 0 0 0 0 0 0 0 0 
0 0 0 0 0 0 0 0 0 
0 0 0 0 0 0 0 0 0 
0 0 0 0 0 0 0 0 0 
0 0 0 0 0 0 0 0 0 
0 0 0 0 0 0 0 0 0 
0 0 0 0 0 0 0 0 0 
0 0 0 0 0 0 0 0 0 
0 0 0 0 0 0 0 0 0 
0 0 0 0 0 0 0 0 0 
0 0 0 0 0 0 0 0 0 
0 0 0 0 0 0 0 0 0 
0 0 0 0 0 0 0 0 0 
0 0 0 0 0 0 0 0 0 
0 0 0 0 0 0 0 0 0 
0 0 0 0 0 0 0 0 0 
0 0 0 0 0 0 0 0 0 
0 0 0 0 0 0 0 0 0 
0 0 0 0 0 0 0 0 0 
0 0 0 0 0 0 0 0 0 
0 0 0 0 0 0 0 0 0 
0 0 0 0 0 0 0 0 0 
0 0 0 0 0 0 0 0 0 
0 0 0 0 0 0 0 0 0 
0 0 0 0 0 0 0 0 0 
0 0 0 0 0 0 0 0 0 
0 0 0 0 0 0 0 0 0 
0 0 0 0 0 0 0 0 0 
0 0 0 0 0 0 0 0 0 
0 0 0 0 0 0 0 0 0 
0 0 0 0 0 0 0 0 0 
0 0 0 0 0 0 0 0 0 
0 0 0 0 0 0 0 0 0 
0 0 0 0 0 0 0 0 0 
0 0 0 0 0 0 0 0 0 
0 0 0 0 0 0 0 0 0 
0 0 0 0 0 0 0 0 0 
0 0 0 0 0 0 0 0 0 
0 0 0 0 0 0 0 0 0 
0 0 0 0 0 0 0 0 0 
0 0 0 0 0 0 0 0 0 
0 0 0 0 0 0 0 0 0 
0 0 0 0 0 0 0 0 0 
0 0 0 0 0 0 0 0 0 
0 0 0 0 0 0 0 0 0 
0 0 0 0 0 0 0 0 0 
0 0 0 0 0 0 0 0 0 
0 0 0 0 0 0 0 0 0 
0 0 0 0 0 0 0 0 0 
0 0 0 0 0 0 0 0 0 
0 0 0 0 0 0 0 0 0 
0 0 0 0 0 0 0 0 0 
0 0 0 0 0 0 0 0 0 
0 0 0 0 0 0 0 0 0 
0 0 0 0 0 0 0 0 0 
0 0 0 0 0 0 0 0 0 
0 0 0 0 0 0 0 0 0 
0 0 0 0 0 0 0 0 0 
0 0 0 0 0 0 0 0 0 
0 0 0 0 0 0 0 0 0 
0 0 0 0 0 0 0 0 0 
0 0 0 0 0 0 0 0 0 
0 0 0 0 0 0 0 0 0 
0 0 0 0 0 0 0 0 0 
0 0 0 0 0 0 0 0 0 
0 0 0 0 0 0 0 0 0 
0 0 0 0 0 0 0 0 0 
0 0 0 0 0 0 0 0 0 
0 0 0 0 0 0 0 0 0 
0 0 0 0 0 0 0 0 0 
0 0 0 0 0 0 0 0 0 
0 0 0 0 0 0 0 0 0 
0 0 0 0 0 0 0 0 0 
0 0 0 0 0 0 0 0 0 
0 0 0 0 0 0 0 0 0 
0 0 0 0 0 0 0 0 0 
0 0 0 0 0 0 0 0 0 
0 0 0 0 0 0 0 0 0 
0 0 0 0 0 0 0 0 0 
0 0 0 0 0 0 0 0 0 
0 0 0 0 0 0 0 0 0 
0 0 0 0 0 0 0 0 0 
0 0 0 0 0 0 0 0 0 
0 0 0 0 0 0 0 0 0 
0 0 0 0 0 0 0 0 0 
0 0 0 0 0 0 0 0 0 
0 0 0 0 0 0 0 0 0 
0 0 0 0 0 0 0 0 0 
0 0 0 0 0 0 0 0 0 
0 0 0 0 0 0 0 0 0 
0 0 0 0 0 0 0 0 0 
0 0 0 0 0 0 0 0 0 
0 0 0 0 0 0 0 0 0 
0 0 0 0 0 0 0 0 0 
0 0 0 0 0 0 0 0 0 
0 0 0 0 0 0 0 0 0 
0 0 0 0 0 0 0 0 0 
0 0 0 0 0 0 0 0 0 
0 0 0 0 0 0 0 0 0 
0 0 0 0 0 0 0 0 0 
0 0 0 0 0 0 0 0 0 
0 0 0 0 0 0 0 0 0 
0 0 0 0 0 0 0 0 0 
0 0 0 0 0 0 0 0 0 
0 0 0 0 0 0 0 0 0 
0 0 0 0 0 0 0 0 0 
0 0 0 0 0 0 0 0 0 
0 0 0 0 0 0 0 0 0 
0 0 0 0 0 0 0 0 0 
0 0 0 0 0 0 0 0 0 
0 0 0 0 0 0 0 0 0 
0 0 0 0 0 0 0 0 0 
0 0 0 0 0 0 0 0 0 
0 0 0 0 0 0 0 0 0 
0 0 0 0 0 0 0 0 0 
0 0 0 0 0 0 0 0 0 
0 0 0 0 0 0 0 0 0 
0 0 0 0 0 0 0 0 0 
0 0 0 0 0 0 0 0 0 
0 0 0 0 0 0 0 0 0 
0 0 0 0 0 0 0 0 0 
0 0 0 0 0 0 0 0 0 
0 0 0 0 0 0 0 0 0 
0 0 0 0 0 0 0 0 0 
0 0 0 0 0 0 0 0 0 
0 0 0 0 0 0 0 0 0 
0 0 0 0 0 0 0 0 0 
0 0 0 0 0 0 0 0 0 
0 0 0 0 0 0 0 0 0 
0 0 0 0 0 0 0 0 0 
0 0 0 0 0 0 0 0 0 
0 0 0 0 0 0 0 0 0 
0 0 0 0 0 0 0 0 0 
0 0 0 0 0 0 0 0 0 
0 0 0 0 0 0 0 0 0 
0 0 0 0 0 0 0 0 0 
0 0 0 0 0 0 0 0 0 
0 0 0 0 0 0 0 0 0 
0 0 0 0 0 0 0 0 0 
0 0 0 0 0 0 0 0 0 
0 0 0 0 0 0 0 0 0 
0 0 0 0 0 0 0 0 0 
0 0 0 0 0 0 0 0 0 
0 0 0 0 0 0 0 0 0 
0 0 0 0 0 0 0 0 0 
0 0 0 0 0 0 0 0 0 
0 0 0 0 0 0 0 0 0 
0 0 0 0 0 0 0 0 0 
0 0 0 0 0 0 0 0 0 
0 0 0 0 0 0 0 0 0 
0 0 0 0 0 0 0 0 0 
0 0 0 0 0 0 0 0 0 
0 0 0 0 0 0 0 0 0 
0 0 0 0 0 0 0 0 0 
0 0 0 0 0 0 0 0 0 
0 0 0 0 0 0 0 0 0 
0 0 0 0 0 0 0 0 0 
0 0 0 0 0 0 0 0 0 
0 0 0 0 0 0 0 0 0 
0 0 0 0 0 0 0 0 0 
0 0 0 0 0 0 0 0 0 
0 0 0 0 0 0 0 0 0 
0 0 0 0 0 0 0 0 0 
0 0 0 0 0 0 0 0 0 
0 0 0 0 0 0 0 0 0 
0 0 0 0 0 0 0 0 0 
0 0 0 0 0 0 0 0 0 
0 0 0 0 0 0 0 0 0 
0 0 0 0 0 0 0 0 0 
0 0 0 0 0 0 0 0 0 
0 0 0 0 0 0 0 0 0 
0 0 0 0 0 0 0 0 0 
0 0 0 0 0 0 0 0 0 
0 0 0 0 0 0 0 0 0 
0 0 0 0 0 0 0 0 0 
0 0 0 0 0 0 0 0 0 
0 0 0 0 0 0 0 0 0 
0 0 0 0 0 0 0 0 0 
0 0 0 0 0 0 0 0 0 
0 0 0 0 0 0 0 0 0 
0 0 0 0 0 0 0 0 0 
0 0 0 0 0 0 0 0 0 
0 0 0 0 0 0 0 0 0 
0 0 0 0 0 0 0 0 0 
0 0 0 0 0 0 0 0 0 
0 0 0 0 0 0 0 0 0 
0 0 0 0 0 0 0 0 0 
0 0 0 0 0 0 0 0 0 
0 0 0 0 0 0 0 0 0 
0 0 0 0 0 0 0 0 0 
0 0 0 0 0 0 0 0 0 
0 0 0 0 0 0 0 0 0 
0 0 0 0 0 0 0 0 0 
0 0 0 0 0 0 0 0 0 
0 0 0 0 0 0 0 0 0 
0 0 0 0 0 0 0 0 0 
0 0 0 0 0 0 0 0 0 
0 0 0 0 0 0 0 0 0 
0 0 0 0 0 0 0 0 0 
0 0 0 0 0 0 0 0 0 
0 0 0 0 0 0 0 0 0 
0 0 0 0 0 0 0 0 0 
0 0 0 0 0 0 0 0 0 
0 0 0 0 0 0 0 0 0 
0 0 0 0 0 0 0 0 0 
0 0 0 0 0 0 0 0 0 
0 0 0 0 0 0 0 0 0 
0 0 0 0 0 0 0 0 0 
0 0 0 0 0 0 0 0 0 
0 0 0 0 0 0 0 0 0 
0 0 0 0 0 0 0 0 0 
0 0 0 0 0 0 0 0 0 
0 0 0 0 0 0 0 0 0 
0 0 0 0 0 0 0 0 0 
0 0 0 0 0 0 0 0 0 
0 0 0 0 0 0 0 0 0 
0 0 0 0 0 0 0 0 0 
0 0 0 0 0 0 0 0 0 
0 0 0 0 0 0 0 0 0 
0 0 0 0 0 0 0 0 0 
0 0 0 0 0 0 0 0 0 
0 0 0 0 0 0 0 0 0 
0 0 0 0 0 0 0 0 0 
0 0 0 0 0 0 0 0 0 
0 0 0 0 0 0 0 0 0 
0 0 0 0 0 0 0 0 0 
0 0 0 0 0 0 0 0 0 
0 0 0 0 0 0 0 0 0 
0 0 0 0 0 0 0 0 0 
0 0 0 0 0 0 0 0 0 
0 0 0 0 0 0 0 0 0 
0 0 0 0 0 0 0 0 0 
0 0 0 0 0 0 0 0 0 
0 0 0 0 0 0 0 0 0 
0 0 0 0 0 0 0 0 0 
0 0 0 0 0 0 0 0 0 
0 0 0 0 0 0 0 0 0 
0 0 0 0 0 0 0 0 0 
0 0 0 0 0 0 0 0 0 
0 0 0 0 0 0 0 0 0 
0 0 0 0 0 0 0 0 0 
0 0 0 0 0 0 0 0 0 
0 0 0 0 0 0 0 0 0 
0 0 0 0 0 0 
v 3 890 double
-0.169012 0.138597 -0.0986858 -0.0313251 0.032456 0.127534 -0.178108 -0.167489 -0.0308706 
0.0495932 0.0017924 -0.115759 -0.0872406 -0.0671847 -0.0178772 0.129477 -0.000649785 -0.0413877 
0.0403363 0.000405144 0.0302574 -0.0849469 -0.0344904 -0.0110224 0.022859 -0.048093 -0.061282 
0.284974 -0.137078 -0.145134 -0.0250133 -0.00130762 -0.0383238 -0.220081 0.0561725 -0.0610426 
-0.249351 -0.243202 -0.0565505 -0.0549249 -0.0631099 0.0390508 0.0859657 0.051058 -0.0354439 
0.111884 -0.004126 0.0503943 -0.0310784 -0.0366676 0.0321239 -0.0642471 0.0228031 -0.0363084 
-0.0180564 0.11301 0.0197328 -0.0572127 0.00133593 -0.0236421 -0.014986 -0.119989 -0.0557153 
0.0724299 -0.0233241 -0.045759 0.00348344 -0.0711811 -0.0187677 -0.034311 -0.0272671 0.00440735 
-0.0743822 0.166611 0.0617323 -0.155245 -0.0587761 0.0306377 -0.0465201 -0.0357163 0.0564242 
0.0154153 -0.05681 -0.00614215 0.0489334 -0.0510834 0.022378 0.0103829 0.208032 0.120293 
-0.00703122 0.0768017 -0.00113738 -0.03296 -0.290936 -0.0641683 -0.00209273 0.0203516 -0.00850501 
-0.0540963 0.0591944 -0.00425352 -0.0892222 0.00729138 -0.058585 -0.0939659 -0.0188288 0.0160322 
-0.11378 0.0657556 -0.0652755 -0.122019 -0.022065 -0.0275322 -0.160691 -0.115699 0.0457852 
-0.0938237 0.0473602 0.0325475 0.0752373 -0.00760092 0.0944028 0.0447464 0.0836732 -0.0665365 
0.00581912 -0.0082825 -0.0177717 -0.132681 0.0826847 0.0363551 -0.132256 0.0749089 0.0464193 
0.0374686 0.102774 0.0797923 -0.0745085 -0.12964 0.0170723 -0.174656 -0.0299554 0.0386756 
-0.0356536 -0.0451969 0.0308174 -0.0276092 -0.0065095 0.0236018 -0.0387324 -0.0715035 0.092315 
-0.119318 -0.0383218 -0.036502 -0.143062 -0.0110688 0.0203527 0.288984 0.183769 0.0670137 
0.0309929 0.141618 -0.121573 -0.168519 0.187079 -0.0467065 -0.108075 0.0438874 0.0772627 
0.00928032 -0.0387416 -0.00987218 -0.0606857 0.0176054 0.0547268 -0.0613938 -0.032083 0.052944 
0.0423051 0.0554079 -0.0862317 -0.0218569 0.130441 0.0273195 0.0673903 0.131453 0.0249704 
0.0374787 0.0649913 0.0609991 0.150232 0.00329409 0.0106872 0.230548 0.00651639 0.0995837 
0.0100515 0.121731 0.0202159 0.0631208 0.0496479 -0.00500195 0.0718053 0.0868813 0.0534495 
0.177311 -0.00689014 0.016112 0.00545732 -0.0601722 0.0428145 0.0074585 -0.0795973 0.115667 
0.00977371 -0.100695 0.0060719 -0.0369044 -0.105135 0.0131962 0.0928686 0.158644 -0.0358208 
-0.101181 -0.0172105 0.0402087 0.0672486 0.00937956 0.0520799 0.0239823 0.0592231 0.0053289 
0.111579 0.119084 0.034092 -0.00478372 0.0599204 -0.236123 -0.299833 0.0145756 -0.0587712 
0.0269621 0.0236356 0.0127495 0.0946006 0.0698316 -0.0132488 -0.0848358 -0.0125271 0.108713 
-0.0318809 0.00158292 0.0153851 0.011381 -0.0501306 0.0446387 -0.148163 0.0730634 -0.0916699 
-0.0678765 -0.10641 0.0982146 -0.171544 -0.125022 -0.019043 -0.011276 0.0916247 -0.0313759 
-0.0734932 0.011769 0.0401828 -0.0931816 -0.0925694 -0.0431043 -0.195967 0.284787 -0.114392 
-0.072135 0.283987 -0.0205826 -0.0788894 -0.00314692 -0.157798 -0.139872 0.141303 -0.0415397 
0.0306223 0.106656 0.0245572 0.0128254 0.0213964 -0.00961602 0.0270469 0.0936533 -0.0814032 
0.0157155 -0.0245796 -0.0418205 -0.0321493 -0.0760055 0.0281005 0.0390384 -0.0167437 -0.0098887 
-0.00536456 -0.0250227 -0.0305065 0.036886 0.0316591 -0.0205162 -0.0656035 -0.077581 0.088243 
0.0627422 -0.291529 -0.100148 -0.182312 0.056132 -0.0330326 0.0130725 -0.0393302 -0.18141 
-0.022318 0.0414853 -0.0518149 -0.07293 -0.019748 -0.151753 0.114752 0.0162772 -0.00244937 
-0.0696681 -0.057849 0.0489622 -0.0553609 -0.0400427 0.0444092 0.172885 -0.105349 -0.186379 
-0.148561 0.182042 -0.0548889 -0.122787 0.0437467 -0.00557967 0.055745 0.231127 0.157605 
-0.0187529 -0.0803489 -0.0486995 -0.0172456 -0.0460627 0.0765403 -0.0391121 -0.068048 0.059321 
-0.0743281 -0.0237516 -0.150142 -0.0534343 -0.0499236 0.169283 -0.185102 -0.0429744 -0.443067 
-0.0493075 0.128253 0.0236591 0.106602 0.010745 -0.280482 0.0928536 0.0276682 -0.507554 
0.0196081 0.0936045 0.0669576 -0.131155 0.170137 0.053266 -0.0855423 0.054093 -0.185161 
-0.146005 0.124481 -0.068249 0.064077 -0.0203806 0.183793 -0.0336638 -0.011211 -0.262224 
-0.0790457 -0.0361023 -0.141688 0.125812 0.0196916 0.0505367 0.0838135 -0.0295544 -0.0264785 
0.0211729 0.0101328 0.019078 -0.272154 0.153991 -0.0431381 0.0129911 0.106471 -0.0162983 
-0.289691 0.182429 -0.337158 0.0344876 0.093417 0.106245 0.0689825 -0.14812 -0.0413915 
0.0152297 0.0715428 -0.217644 0.0541745 0.111453 -0.0349328 -0.0776442 0.203481 -0.0903824 
-0.211707 -0.0299562 -0.095866 0.254563 0.0773515 0.130351 -0.427022 0.103435 0.00347365 
-0.120313 0.138895 0.0704611 0.0970043 -0.070178 -0.169051 0.0999688 0.0395852 -0.0401862 
-0.0733277 -0.119869 0.0344294 -0.120222 -0.000868094 0.0972937 0.0454578 0.149605 -0.0417662 
0.0265915 0.0787937 0.137951 0.00634844 -0.131145 -0.123277 -0.0380569 -0.0597399 0.00568256 
-0.38621 0.199621 -0.315665 -0.0581407 -0.172229 -0.206173 0.0450346 -0.0734188 0.0465885 
-0.0488413 0.0741192 0.0644344 -0.000407131 -0.0724245 -0.0183666 0.0949504 0.146829 0.0465331 
-0.0410173 0.0299195 0.0844285 -0.0771536 -0.0707309 -0.258923 -0.100711 -0.0631688 0.193265 
-0.0147196 -0.0184655 -0.00161375 -0.151665 0.128265 0.127546 -0.148782 -0.0642164 -0.065558 
-0.0323653 -0.323911 -0.0494337 -0.197064 0.0969897 0.0747552 -0.16388 0.225651 0.0690651 
0.0921848 0.290896 -0.273517 0.000171635 0.147098 0.00741244 0.000773399 0.294127 0.117967 
0.0366655 -0.103484 -0.091996 0.0566441 -0.0672545 -0.0889757 0.0465889 0.0874974 -0.0515074 
-0.0277527 0.00980836 -0.130256 0.195623 -0.0468517 -0.128957 -0.0349973 0.0910114 -0.0510505 
0.0663688 0.0539216 0.062032 0.0177194 0.0411178 -0.267568 -0.0611829 0.139752 -0.0555189 
-0.0605832 -0.0378532 0.0928392 0.00158372 0.00655622 -0.140637 -0.0822225 0.0237641 0.164589 
0.136188 -0.0226233 0.0198842 0.0239997 0.072073 0.122808 0.0480077 0.191486 -0.153114 
-0.0668805 0.0767471 -0.235875 -0.0982231 -0.0645542 0.0307592 -0.0477047 0.0334557 0.0454052 
0.180318 -0.0369458 -0.170502 -0.141003 -0.153471 -0.348452 -0.201631 0.0720395 -0.437861 
0.026152 -0.00236928 -0.479984 -0.0455952 0.142963 -0.0822673 -0.0752567 0.0194397 -0.105086 
-0.0362535 0.0208829 -0.305046 -0.128409 0.0586169 -0.117706 0.0881527 0.201137 -0.392176 
0.341033 -0.00698668 -0.0458169 -0.11929 0.03063 0.0669755 -0.0991891 0.059011 0.0374113 
-0.216921 -0.00264947 0.0647709 -0.0430904 0.217108 0.230567 -0.111932 0.225467 -0.0168638 
-0.0239396 0.0408944 0.108581 -0.0809071 0.202192 0.0748133 -0.00213254 0.0351661 0.0924398 
-0.0119008 0.0528766 0.13085 -0.111669 0.0266546 -0.201579 -0.0956627 0.00258714 -0.0223579 
-0.0999066 0.0628987 -0.198138 0.0148176 0.230015 -0.13058 -0.0524246 -0.0368897 0.000547636 
-0.131046 0.166221 -0.109077 -0.176317 0.125507 -0.227114 -0.0357801 0.0335857 -0.176945 
0.048244 0.0159183 -0.0187897 -0.104821 -0.0311755 -0.25437 -0.167776 0.169067 -0.267972 
-0.196961 -0.0812585 0.00863219 -0.230402 -0.204509 -0.18209 -0.081447 0.0643762 -0.00259172 
0.0987678 0.0555105 -0.113041 0.0942023 -0.103632 0.120176 0.136264 -0.155155 0.016217 
0.100513 0.0552833 0.179811 -0.126929 -0.00393653 -0.0279897 0.0014691 0.146711 -0.0552802 
0.0265636 -0.0458021 -0.121162 -0.0549984 -0.0818779 -0.0545876 -0.0557428 -0.101063 0.038489 
-0.000888648 -0.00335015 0.0841221 0.014069 -0.113745 0.0926176 -0.300582 -0.0129737 -0.0324441 
-0.00563968 0.079353 0.214235 0.104117 -0.0677024 0.100269 0.0471168 -0.235072 0.228072 
-0.135084 -0.200979 0.103946 -0.054769 0.17237 0.132017 -0.0681038 0.0167437 0.0424042 
-0.107513 0.0311754 0.0737263 -0.113942 -0.135476 0.0349992 0.169978 -0.158804 -0.0258678 
0.108459 -0.0884871 0.164702 0.0505747 -0.0555256 -0.110718 -0.297552 -0.0442177 0.0359655 
-0.151533 -0.00295574 -0.0449558 0.283272 -0.243792 -0.127028 0.248891 0.188668 0.0381884 
-0.0131991 0.44678 -0.0372013 0.0521439 -0.188321 -0.14786 -0.244103 -0.210724 0.0758024 
-0.21252 0.107145 -0.248083 -0.119843 -0.0705984 -0.0641608 0.127951 -0.332537 0.109723 
-0.077573 0.0560856 -0.0261193 -0.10792 0.0462517 -0.28085 -0.0367364 0.141687 -0.0557431 
-0.246749 0.0362409 0.0940352 0.133263 -0.241531 -0.0420068 -0.0436755 0.163543 0.0428345 
-0.00510487 0.389494 -0.0936351 0.170715 -0.154746 -0.114669 -0.0675631 0.0562199 -0.509992 
0.165497 0.00274988 0.0980942 0.104589 0.191867 -0.0175156 0.0416225 -0.333689 -0.505379 
-0.0171304 -0.0118778 -0.135851 -0.178877 -0.0189164 -0.0679397 0.118825 0.0525476 0.0651573 
0.0434099 0.0210976 -0.0401923 0.0554215 0.15134 0.258824 0.14947 0.034889 -0.0464256 
0.138266 0.13475 -0.192614 -0.0916339 -0.22943 -0.175156 -0.16286 0.0445052 -0.147524 
-0.0360953 0.0326321 -0.288815 -0.0446104 0.302428 -0.347678 -0.128289 -0.0830406 0.0503408 
0.0308574 0.0566755 0.00115604 0.251252 0.187903 -0.314976 0.340085 -0.0483019 0.00590875 