# vtk DataFile Version 4.0
Generated by LIGGGHTS
ASCII
DATASET POLYDATA
POINTS 890 float
0.001883 -0.0460584 0.0039488 -0.0191926 -0.0418326 0.0039412 -0.011673 -0.0445176 0.00394127 
0.0107905 -0.044758 0.00393917 0.0194942 -0.0417407 0.00393517 -0.0261503 -0.0379378 0.00395232 
-0.0131161 -0.0366735 0.00391917 -0.00360186 -0.0390778 0.00389537 0.00430452 -0.0385666 0.00391973 
0.012052 -0.036906 0.00394366 0.0263834 -0.0376858 0.00397031 -0.0322462 -0.0328593 0.00395407 
-0.0200584 -0.0329028 0.00391136 -0.00684199 -0.031771 0.00396874 0.00670978 -0.0310338 0.00395667 
0.0193189 -0.0338205 0.00389511 0.0325229 -0.03255 0.00393304 -0.0337928 -0.0250748 0.00392564 
-0.0258942 -0.0274922 0.00391719 -0.0134109 -0.0272586 0.00389982 -0.000938357 -0.0264137 0.00382957 
0.0140318 -0.0278553 0.00395988 0.0376913 -0.026502 0.00390884 -0.0408065 -0.02135 0.00390524 
-0.0201245 -0.0219899 0.00397015 -0.00771122 -0.0217186 0.00390025 0.00629259 -0.0231512 0.00394068 
0.022244 -0.023097 0.00390009 0.0300879 -0.0242729 0.00390031 -0.0278436 -0.0197986 0.0039226 
-0.0140182 -0.0168667 0.00397309 -0.000167508 -0.0184976 0.00395815 0.00711374 -0.0153031 0.0039488 
0.0144224 -0.0187936 0.00398156 0.0282063 -0.0166013 0.00486696 0.0358046 -0.0187766 0.00392114 
0.0432107 -0.0158461 0.00397552 -0.0449712 -0.0100119 0.00396469 -0.0380647 -0.0138894 0.00389393 
-0.0302622 -0.0122179 0.00396888 -0.0221015 -0.0142628 0.00396619 -0.00543073 -0.0125488 0.00392205 
0.0135234 -0.0106699 0.00386403 0.0207881 -0.0139024 0.00388589 0.0350226 -0.0109181 0.00397769 
-0.0236656 -0.00646056 0.00388853 -0.0145353 -0.0089259 0.003903 0.00185724 -0.00932974 0.00393636 
0.0199522 -0.00599349 0.00393499 0.0273959 -0.0087368 0.00392694 0.0453024 -0.0081465 0.00390556 
-0.0393048 -0.00444332 0.00394901 -0.0313216 -0.0043251 0.00394283 -0.0176353 -0.00126676 0.00393659 
-0.00871346 -0.00356164 0.00395996 -0.00162565 -9.28835e-06 0.00392242 0.00832728 -0.00364324 0.00388842 
0.0282507 -0.000831115 0.00391786 0.0385818 -0.00386612 0.00390783 -0.0460598 0.00160452 0.00386395 
-0.0316359 0.00360248 0.00395478 -0.0237103 0.00466636 0.00395387 -0.00826323 0.00440337 0.00393955 
0.00571161 0.00385395 0.00395341 0.0219249 0.00395649 0.00391991 0.0458358 0.00135628 0.00397677 
-0.0450398 0.00946506 0.0039161 -0.0370608 0.00985881 0.00392839 -0.0159395 0.0065184 0.00397625 
-0.00111104 0.0079099 0.00391028 0.0128368 0.00760695 0.00389971 0.0293581 0.00707874 0.00391061 
0.0387982 0.00662884 0.00394935 -0.0291879 0.0111587 0.00394616 -0.0213143 0.0123905 0.00392478 
-0.0102241 0.0121019 0.00387014 0.00609387 0.0118111 0.00394417 0.0197554 0.0115769 0.00392813 
0.0271019 0.014686 0.00394866 0.0349908 0.0136442 0.00390243 0.0443577 0.0123351 0.00393635 
-0.0427527 0.017082 0.00393895 -0.0348035 0.0174404 0.00393637 -0.0262838 0.0185802 0.00390849 
-0.0155848 0.0179619 0.00397302 -0.00670695 0.0192294 0.00391586 0.00548385 0.0197658 0.00392123 
0.0129987 0.0158108 0.0038906 0.0207474 0.0194815 0.00392644 0.0415719 0.0197616 0.00393019 
-0.0390586 0.0243066 0.0039698 -0.0203979 0.0242833 0.00393952 -0.000848895 0.0246847 0.00398164 
0.028406 0.0224961 0.00392497 -0.0264394 0.029474 0.00389526 -0.0132239 0.0277518 0.00390856 
0.00806088 0.027275 0.0039437 0.0161147 0.0264472 0.00392247 0.025087 0.0296802 0.003872 
0.037559 0.0266123 0.00392507 -0.0343223 0.030739 0.00391734 -0.0192673 0.0328701 0.00387214 
-0.00600165 0.0310241 0.00391337 0.00235969 0.0328374 0.00394607 0.0105439 0.0348391 0.00396943 
0.0184526 0.0340347 0.00398283 0.0324439 0.0326768 0.00396339 -0.0268 0.0374238 0.00398209 
-0.0118829 0.0363667 0.00395564 -0.00339336 0.0385301 0.00388952 0.0263086 0.0377455 0.00391287 
-0.0199428 0.0414945 0.0039527 -0.0124739 0.0443095 0.00397304 0.00484358 0.0403832 0.00392025 
0.011538 0.0445906 0.00390861 0.0190576 0.0419338 0.00396003 -0.000697883 0.0460543 0.00394891 
-0.00494068 -0.0458016 0.00796431 -0.00864587 -0.0390632 0.00995708 -1.2945e-05 -0.033138 0.00782916 
-0.0189249 -0.027537 0.00956683 -0.00591006 -0.0265359 0.00993219 0.0253568 -0.0298149 0.00689965 
0.0114548 -0.0232909 0.00994985 0.0406706 -0.0216885 0.00943546 -0.0430377 -0.0163426 0.00961039 
-0.0341083 -0.0187173 0.0087327 -0.0352262 -0.00878458 0.00921765 -0.0195885 -0.00953342 0.00992049 
-0.00322158 -0.00616658 0.00914533 0.00779458 -0.00942413 0.00921904 -0.045854 -0.00412148 0.00924275 
-0.0253401 -0.000962748 0.00935075 0.00336856 -0.00175962 0.00977824 -0.0389437 0.00285631 0.00704199 
0.0151157 0.000145664 0.00531293 0.040115 0.00126144 0.00967325 0.0455615 0.0069723 0.00963782 
-0.0157185 0.0122338 0.00953944 -0.00566362 0.0101455 0.00998059 -0.0212171 0.0179264 0.00995385 
-0.000455425 0.0152715 0.00676746 -0.0313353 0.0239707 0.00668697 0.0118666 0.0218895 0.00883744 
0.0348209 0.0204166 0.00810445 -0.00773947 0.0251726 0.00902461 0.0297563 0.0275183 0.00992524 
-0.0169776 0.0372671 0.00998649 -0.00633814 0.0437892 0.00903671 -0.00887132 -0.0452474 0.0148525 
0.00641059 -0.0456035 0.0105082 -0.0227465 -0.0400321 0.0108298 -0.0154795 -0.0433204 0.0108132 
0.000335987 -0.0404896 0.0106476 0.0145025 -0.0413081 0.0100773 0.00791074 -0.0368877 0.0107544 
0.0229799 -0.0398744 0.0108546 0.029662 -0.0352183 0.0108175 -0.0336464 -0.0314566 0.0116529 
-0.025173 -0.0324886 0.0100129 -0.0184976 -0.0341209 0.0140464 -0.0119169 -0.0318096 0.0102216 
-0.0050679 -0.0332421 0.0140029 0.0149733 -0.0333233 0.0104982 0.0221917 -0.0324909 0.0137415 
-0.038461 -0.0253076 0.0103496 0.0057619 -0.0292443 0.0116493 0.0187508 -0.0263308 0.0102175 
0.0282767 -0.0272646 0.0137673 0.0352862 -0.0295718 0.010813 -0.0294049 -0.0248521 0.0105383 
-0.0228566 -0.0227706 0.0144561 -0.0126833 -0.0225027 0.0102318 0.00116527 -0.0228578 0.0105271 
0.0328317 -0.0214904 0.0107806 -0.026528 -0.0165813 0.0110254 -0.0186536 -0.0173597 0.0104455 
-0.00513299 -0.017571 0.0101046 0.00238162 -0.0150166 0.0106821 0.01061 -0.015921 0.0127818 
0.020601 -0.0186126 0.0102098 0.0274727 -0.0162285 0.0134654 -0.0449476 -0.0101768 0.014193 
-0.0378477 -0.0135514 0.0149846 -0.00983634 -0.0104556 0.0101414 0.0231479 -0.0102043 0.0104814 
0.0370534 -0.0147238 0.0106964 0.0445035 -0.0119424 0.0108153 -0.0274275 -0.00867681 0.0105218 
0.0154358 -0.00855337 0.0111704 0.0310317 -0.00955822 0.0109382 0.0384777 -0.00683085 0.0113346 
-0.0395541 -0.00431411 0.014106 -0.0331285 -0.000879278 0.0108953 -0.0141362 -0.00377338 0.0106045 
0.0100487 -0.00333638 0.0137827 0.0206385 -0.00184913 0.010655 0.0326155 -0.00157748 0.0104592 
0.0458949 -0.00406281 0.0106657 -0.0392702 0.00360254 0.014926 -0.0185107 0.00289894 0.0106685 
-0.007375 0.000410566 0.0107255 0.0102931 0.00384833 0.0104469 0.0264895 0.00351353 0.0103733 
-0.0457375 0.00548113 0.0107694 -0.0315316 0.00741136 0.0109366 -0.0236982 0.00894098 0.0106688 
-0.0118715 0.00640719 0.0132787 0.00345339 0.00795665 0.0104308 0.0177094 0.00672397 0.010094 
0.0339937 0.00622686 0.0102852 -0.0441664 0.0132658 0.0107982 -0.0363274 0.0137453 0.0108238 
-0.000495616 0.0139625 0.014633 0.0108324 0.0117604 0.0103378 0.0242738 0.011176 0.0104777 
0.031758 0.0137602 0.0111475 0.0394618 0.0120177 0.0102222 -0.0285839 0.0151962 0.0107509 
-0.00870892 0.017375 0.0114004 0.00573713 0.0176947 0.0115522 0.0176817 0.0157993 0.0102963 
0.0258597 0.0190125 0.0106223 0.0417696 0.0194653 0.0118526 -0.0410951 0.0207131 0.0107954 
-0.0335935 0.0207156 0.0135089 -0.0153262 0.0231808 0.0100015 -0.00133896 0.021352 0.0117622 
0.0194084 0.0235965 0.0105554 -0.0369638 0.0274989 0.0109867 -0.0245402 0.0251734 0.0106434 
-0.00140087 0.0297058 0.0101886 0.00533401 0.025689 0.0112624 0.0123628 0.0297111 0.0101611 
0.0374237 0.0269388 0.0118425 -0.0316612 0.0334319 0.0108775 -0.02375 0.0330911 0.0103766 
-0.0129577 0.0306099 0.0115844 0.0226306 0.0314285 0.0111246 -0.00680819 0.0355683 0.0104361 
0.000873723 0.0387016 0.0105353 0.00874249 0.0375213 0.0112551 0.0163984 0.0359528 0.0129266 
0.0228823 0.0399563 0.0106862 0.0294791 0.0354135 0.0108239 -0.0135932 0.0440473 0.0122112 
0.0152511 0.0434738 0.0107857 -7.06958e-06 0.0460653 0.0133213 0.00750024 0.0453951 0.0107301 
0.000578999 -0.0460942 0.0161916 -0.0227175 -0.0400564 0.018785 -0.0155364 -0.0433641 0.0187519 
0.00688239 -0.0413841 0.0172298 0.0144001 -0.0437712 0.0175857 -0.028873 -0.0358896 0.0161383 
-0.011555 -0.0367499 0.0169256 -0.00405091 -0.0399288 0.0181739 0.0158943 -0.0358988 0.0179771 
0.0266732 -0.0376165 0.0177306 0.00235341 -0.0349957 0.0160647 0.0327581 -0.0323955 0.0178197 
-0.0371383 -0.0271992 0.0179735 -0.0286408 -0.0267396 0.0182427 -0.0156573 -0.0261888 0.0166528 
-0.00484674 -0.0262114 0.0177602 0.00269516 -0.0279001 0.0195434 0.0120062 -0.0290474 0.0165272 
0.0386462 -0.0250049 0.0164117 -0.0412174 -0.0206112 0.0161019 -0.03327 -0.0204153 0.0164285 
0.00669885 -0.0219832 0.0161578 0.01452 -0.0215243 0.0174678 0.0222885 -0.0229538 0.0166252 
-0.0178895 -0.0182121 0.0186366 -0.0109 -0.0163152 0.0154028 -0.00143422 -0.0190844 0.0169649 
0.034794 -0.0181554 0.0176824 0.0425334 -0.0176434 0.0159639 -0.0302268 -0.0126787 0.0168299 
-0.0223506 -0.0118334 0.016993 -0.00337 -0.011572 0.0149978 0.00494576 -0.0145433 0.0182386 
0.0176434 -0.0143135 0.0161281 0.0448161 -0.0105477 0.0186668 -0.0148032 -0.00939933 0.0162138 
0.00336801 -0.00734555 0.0154191 0.0113775 -0.00986082 0.0181325 0.0234157 -0.00885881 0.0182868 
0.0330975 -0.00538999 0.0173806 -0.0460669 -0.000295263 0.0162256 -0.0287863 -0.00398448 0.0167616 
-0.0209439 -0.00389068 0.0153365 -0.0130948 -0.00179898 0.0182416 -0.00299766 -0.00282075 0.016482 
0.0171112 -0.00407891 0.0174067 0.0261533 -0.0016567 0.0163597 0.046021 -0.00272257 0.0184901 
-0.0265345 0.0035664 0.0157851 -0.019469 0.00282883 0.01931 -0.0025235 0.00498304 0.015096 
0.00496438 0.00256816 0.0162119 0.0122424 0.00187169 0.0193296 0.0199731 0.00333296 0.0169054 
0.0387793 0.000167436 0.0173747 -0.0450372 0.00939123 0.0176917 -0.0331732 0.0065772 0.0189333 
[...]
POINT_DATA 890
FIELD FieldData 9
id 1 890 int
328 395 635 139 347 203 196 236 800 
586 677 582 256 398 603 449 396 177 
871 806 739 153 532 627 810 477 860 
28 388 471 90 611 521 602 102 671 
169 740 351 190 666 39 145 249 120 
876 755 634 176 134 46 275 731 62 
11 830 119 833 385 329 189 702 199 
506 483 873 675 307 82 197 319 738 
538 654 657 473 159 274 450 327 174 
2 10 276 575 787 426 534 14 858 
138 180 432 531 418 224 278 724 842 
430 662 462 35 469 408 298 326 53 
89 349 706 4 742 641 416 546 859 
650 101 883 699 85 216 198 601 192 
874 323 759 333 696 230 520 625 401 
265 244 461 227 96 804 698 67 118 
390 594 440 680 242 886 37 596 231 
376 179 613 17 65 598 713 309 571 
80 162 284 97 52 692 429 206 111 
59 630 66 200 86 142 664 413 649 
779 667 674 113 33 879 341 884 411 
553 862 535 498 682 563 105 259 44 
257 422 250 659 530 570 849 50 708 
182 482 827 217 632 175 766 363 195 
809 140 653 317 816 228 689 672 508 
16 116 854 316 836 19 150 478 767 
748 222 869 123 405 795 41 258 38 
737 289 338 207 687 733 392 608 851 
690 409 776 467 778 218 167 358 526 
794 184 618 780 310 544 799 523 622 
888 758 221 268 393 70 103 386 76 
488 55 354 515 668 636 855 322 252 
215 141 599 348 253 588 366 606 676 
295 5 239 367 514 568 628 121 18 
350 679 541 821 262 383 797 619 375 
694 64 808 273 313 77 171 765 460 
229 796 715 431 47 503 791 269 771 
489 501 438 751 364 7 377 314 63 
726 707 623 399 420 519 365 652 545 
812 382 880 743 337 149 504 673 126 
110 243 56 612 318 824 373 479 499 
640 404 864 108 286 782 517 336 240 
474 370 651 343 848 237 30 480 729 
21 557 414 576 339 94 133 99 406 
645 585 292 223 811 464 448 749 847 
87 132 695 397 251 104 505 456 655 
315 311 609 22 308 92 558 281 136 
29 331 446 378 468 746 166 129 455 
380 574 578 547 254 727 844 597 114 
428 642 881 266 73 444 725 248 125 
723 42 870 419 802 722 669 290 210 
638 721 435 75 187 486 320 495 688 
451 291 417 700 271 803 424 757 280 
701 332 829 801 616 840 875 736 160 
507 878 407 205 882 605 433 297 445 
164 368 260 374 246 127 720 683 402 
465 12 463 852 107 510 850 188 761 
522 660 161 300 219 579 115 122 34 
793 615 572 648 334 381 705 714 285 
128 775 421 58 837 494 610 226 54 
528 362 559 61 691 518 734 148 845 
744 154 524 91 208 458 71 584 484 
403 466 556 26 670 491 36 457 352 
437 637 785 157 369 345 856 772 57 
173 550 529 83 238 43 452 853 644 
817 728 213 581 647 68 40 423 885 
475 788 838 335 857 537 209 562 25 
1 212 798 288 470 681 72 360 88 
357 770 502 106 711 747 492 626 600 
6 820 124 569 69 865 784 774 454 
513 344 321 325 867 294 389 709 684 
819 245 685 567 697 191 283 211 135 
777 735 591 202 573 84 604 866 704 
45 193 490 117 359 527 493 340 552 
394 263 371 78 346 225 629 763 178 
826 3 877 439 589 220 8 272 306 
442 583 20 436 487 590 686 789 9 
658 481 716 756 270 564 863 807 633 
264 186 23 15 305 261 718 384 233 
561 112 143 754 790 303 500 304 764 
631 768 425 769 163 98 781 663 890 
509 516 255 678 330 580 355 302 361 
282 427 533 646 342 185 434 279 732 
485 593 301 511 496 27 717 656 183 
412 146 100 889 170 745 577 24 312 
786 815 296 158 277 614 299 551 201 
643 540 165 555 621 752 130 549 400 
441 93 81 247 624 512 324 560 459 
773 156 168 565 476 805 109 172 443 
753 356 887 372 241 841 730 95 415 
147 822 391 144 548 204 762 79 49 
410 665 741 194 543 818 453 710 542 
839 131 750 51 719 155 353 48 831 
137 783 843 828 214 287 872 592 703 
235 539 639 234 814 832 595 661 712 
497 447 60 834 868 181 536 760 293 
151 387 566 525 617 823 693 620 861 
32 825 554 13 472 379 267 587 813 
846 232 31 74 792 607 152 835 
type 1 890 int
1 1 1 1 1 1 1 1 1 
1 1 1 1 1 1 1 1 1 
1 1 1 1 1 1 1 1 1 
1 1 1 1 1 1 1 1 1 
1 1 1 1 1 1 1 1 1 
1 1 1 1 1 1 1 1 1 
1 1 1 1 1 1 1 1 1 
1 1 1 1 1 1 1 1 1 
1 1 1 1 1 1 1 1 1 
1 1 1 1 1 1 1 1 1 
1 1 1 1 1 1 1 1 1 
1 1 1 1 1 1 1 1 1 
1 1 1 1 1 1 1 1 1 
1 1 1 1 1 1 1 1 1 
1 1 1 1 1 1 1 1 1 
1 1 1 1 1 1 1 1 1 
1 1 1 1 1 1 1 1 1 
1 1 1 1 1 1 1 1 1 
1 1 1 1 1 1 1 1 1 
1 1 1 1 1 1 1 1 1 
1 1 1 1 1 1 1 1 1 
1 1 1 1 1 1 1 1 1 
1 1 1 1 1 1 1 1 1 
1 1 1 1 1 1 1 1 1 
1 1 1 1 1 1 1 1 1 
1 1 1 1 1 1 1 1 1 
1 1 1 1 1 1 1 1 1 
1 1 1 1 1 1 1 1 1 
1 1 1 1 1 1 1 1 1 
1 1 1 1 1 1 1 1 1 
1 1 1 1 1 1 1 1 1 
1 1 1 1 1 1 1 1 1 
1 1 1 1 1 1 1 1 1 
1 1 1 1 1 1 1 1 1 
1 1 1 1 1 1 1 1 1 
1 1 1 1 1 1 1 1 1 
1 1 1 1 1 1 1 1 1 
1 1 1 1 1 1 1 1 1 
1 1 1 1 1 1 1 1 1 
1 1 1 1 1 1 1 1 1 
1 1 1 1 1 1 1 1 1 
1 1 1 1 1 1 1 1 1 
1 1 1 1 1 1 1 1 1 
1 1 1 1 1 1 1 1 1 
1 1 1 1 1 1 1 1 1 
1 1 1 1 1 1 1 1 1 
1 1 1 1 1 1 1 1 1 
1 1 1 1 1 1 1 1 1 
1 1 1 1 1 1 1 1 1 
1 1 1 1 1 1 1 1 1 
1 1 1 1 1 1 1 1 1 
1 1 1 1 1 1 1 1 1 
1 1 1 1 1 1 1 1 1 
1 1 1 1 1 1 1 1 1 
1 1 1 1 1 1 1 1 1 
1 1 1 1 1 1 1 1 1 
1 1 1 1 1 1 1 1 1 
1 1 1 1 1 1 1 1 1 
1 1 1 1 1 1 1 1 1 
1 1 1 1 1 1 1 1 1 
1 1 1 1 1 1 1 1 1 
1 1 1 1 1 1 1 1 1 
1 1 1 1 1 1 1 1 1 
1 1 1 1 1 1 1 1 1 
1 1 1 1 1 1 1 1 1 
1 1 1 1 1 1 1 1 1 
1 1 1 1 1 1 1 1 1 
1 1 1 1 1 1 1 1 1 
1 1 1 1 1 1 1 1 1 
1 1 1 1 1 1 1 1 1 
1 1 1 1 1 1 1 1 1 
1 1 1 1 1 1 1 1 1 
1 1 1 1 1 1 1 1 1 
1 1 1 1 1 1 1 1 1 
1 1 1 1 1 1 1 1 1 
1 1 1 1 1 1 1 1 1 
1 1 1 1 1 1 1 1 1 
1 1 1 1 1 1 1 1 1 
1 1 1 1 1 1 1 1 1 
1 1 1 1 1 1 1 1 1 
1 1 1 1 1 1 1 1 1 
1 1 1 1 1 1 1 1 1 
1 1 1 1 1 1 1 1 1 
1 1 1 1 1 1 1 1 1 
1 1 1 1 1 1 1 1 1 
1 1 1 1 1 1 1 1 1 
1 1 1 1 1 1 1 1 1 
1 1 1 1 1 1 1 1 1 
1 1 1 1 1 1 1 1 1 
1 1 1 1 1 1 1 1 1 
1 1 1 1 1 1 1 1 1 
1 1 1 1 1 1 1 1 1 
1 1 1 1 1 1 1 1 1 
1 1 1 1 1 1 1 1 1 
1 1 1 1 1 1 1 1 1 
1 1 1 1 1 1 1 1 1 
1 1 1 1 1 1 1 1 1 
1 1 1 1 1 1 1 1 1 
1 1 1 1 1 1 1 1 
i 3 890 int
0 0 0 0 0 0 0 0 0 
0 0 0 0 0 0 0 0 0 
0 0 0 0 0 0 0 0 0 
0 0 0 0 0 0 0 0 0 
0 0 0 0 0 0 0 0 0 
0 0 0 0 0 0 0 0 0 
0 0 0 0 0 0 0 0 0 
0 0 0 0 0 0 0 0 0 
0 0 0 0 0 0 0 0 0 
0 0 0 0 0 0 0 0 0 
0 0 0 0 0 0 0 0 0 
0 0 0 0 0 0 0 0 0 
0 0 0 0 0 0 0 0 0 
0 0 0 0 0 0 0 0 0 
0 0 0 0 0 0 0 0 0 
0 0 0 0 0 0 0 0 0 
0 0 0 0 0 0 0 0 0 
0 0 0 0 0 0 0 0 0 
0 0 0 0 0 0 0 0 0 
0 0 0 0 0 0 0 0 0 
0 0 0 0 0 0 0 0 0 
0 0 0 0 0 0 0 0 0 
0 0 0 0 0 0 0 0 0 
0 0 0 0 0 0 0 0 0 
0 0 0 0 0 0 0 0 0 
0 0 0 0 0 0 0 0 0 
0 0 0 0 0 0 0 0 0 
0 0 0 0 0 0 0 0 0 
0 0 0 0 0 0 0 0 0 
0 0 0 0 0 0 0 0 0 
0 0 0 0 0 0 0 0 0 
0 0 0 0 0 0 0 0 0 
0 0 0 0 0 0 0 0 0 
0 0 0 0 0 0 0 0 0 
0 0 0 0 0 0 0 0 0 
0 0 0 0 0 0 0 0 0 
0 0 0 0 0 0 0 0 0 
0 0 0 0 0 0 0 0 0 
0 0 0 0 0 0 0 0 0 
0 0 0 0 0 0 0 0 0 
0 0 0 0 0 0 0 0 0 
0 0 0 0 0 0 0 0 0 
0 0 0 0 0 0 0 0 0 
0 0 0 0 0 0 0 0 0 
0 0 0 0 0 0 0 0 0 
0 0 0 0 0 0 0 0 0 
0 0 0 0 0 0 0 0 0 
0 0 0 0 0 0 0 0 0 
0 0 0 0 0 0 0 0 0 
0 0 0 0 0 0 0 0 0 
0 0 0 0 0 0 0 0 0 
0 0 0 0 0 0 0 0 0 
0 0 0 0 0 0 0 0 0 
0 0 0 0 0 0 0 0 0 
0 0 0 0 0 0 0 0 0 
0 0 0 0 0 0 0 0 0 
0 0 0 0 0 0 0 0 0 
0 0 0 0 0 0 0 0 0 
0 0 0 0 0 0 0 0 0 
0 0 0 0 0 0 0 0 0 
0 0 0 0 0 0 0 0 0 
0 0 0 0 0 0 0 0 0 
0 0 0 0 0 0 0 0 0 
0 0 0 0 0 0 0 0 0 
0 0 0 0 0 0 0 0 0 
0 0 0 0 0 0 0 0 0 
0 0 0 0 0 0 0 0 0 
0 0 0 0 0 0 0 0 0 
0 0 0 0 0 0 0 0 0 
0 0 0 0 0 0 0 0 0 
0 0 0 0 0 0 0 0 0 
0 0 0 0 0 0 0 0 0 
0 0 0 0 0 0 0 0 0 
0 0 0 0 0 0 0 0 0 
0 0 0 0 0 0 0 0 0 
0 0 0 0 0 0 0 0 0 
0 0 0 0 0 0 0 0 0 
0 0 0 0 0 0 0 0 0 
0 0 0 0 0 0 0 0 0 
0 0 0 0 0 0 0 0 0 
0 0 0 0 0 0 0 0 0 
0 0 0 0 0 0 0 0 0 
0 0 0 0 0 0 0 0 0 
0 0 0 0 0 0 0 0 0 
0 0 0 0 0 0 0 0 0 
0 0 0 0 0 0 0 0 0 
0 0 0 0 0 0 0 0 0 
0 0 0 0 0 0 0 0 0 
0 0 0 0 0 0 0 0 0 
0 0 0 0 0 0 0 0 0 
0 0 0 0 0 0 0 0 0 
0 0 0 0 0 0 0 0 0 
0 0 0 0 0 0 0 0 0 
0 0 0 0 0 0 0 0 0 
0 0 0 0 0 0 0 0 0 
0 0 0 0 0 0 0 0 0 
0 0 0 0 0 0 0 0 0 
0 0 0 0 0 0 0 0 0 
0 0 0 0 0 0 0 0 0 
0 0 0 0 0 0 0 0 0 
0 0 0 0 0 0 0 0 0 
0 0 0 0 0 0 0 0 0 
0 0 0 0 0 0 0 0 0 
0 0 0 0 0 0 0 0 0 
0 0 0 0 0 0 0 0 0 
0 0 0 0 0 0 0 0 0 
0 0 0 0 0 0 0 0 0 
0 0 0 0 0 0 0 0 0 
0 0 0 0 0 0 0 0 0 
0 0 0 0 0 0 0 0 0 
0 0 0 0 0 0 0 0 0 
0 0 0 0 0 0 0 0 0 
0 0 0 0 0 0 0 0 0 
0 0 0 0 0 0 0 0 0 
0 0 0 0 0 0 0 0 0 
0 0 0 0 0 0 0 0 0 
0 0 0 0 0 0 0 0 0 
0 0 0 0 0 0 0 0 0 
0 0 0 0 0 0 0 0 0 
0 0 0 0 0 0 0 0 0 
0 0 0 0 0 0 0 0 0 
0 0 0 0 0 0 0 0 0 
0 0 0 0 0 0 0 0 0 
0 0 0 0 0 0 0 0 0 
0 0 0 0 0 0 0 0 0 
0 0 0 0 0 0 0 0 0 
0 0 0 0 0 0 0 0 0 
0 0 0 0 0 0 0 0 0 
0 0 0 0 0 0 0 0 0 
0 0 0 0 0 0 0 0 0 
0 0 0 0 0 0 0 0 0 
0 0 0 0 0 0 0 0 0 
0 0 0 0 0 0 0 0 0 
0 0 0 0 0 0 0 0 0 
0 0 0 0 0 0 0 0 0 
0 0 0 0 0 0 0 0 0 
0 0 0 0 0 0 0 0 0 
0 0 0 0 0 0 0 0 0 
0 0 0 0 0 0 0 0 0 
0 0 0 0 0 0 0 0 0 
0 0 0 0 0 0 0 0 0 
0 0 0 0 0 0 0 0 0 
0 0 0 0 0 0 0 0 0 
0 0 0 0 0 0 0 0 0 
0 0 0 0 0 0 0 0 0 
0 0 0 0 0 0 0 0 0 
0 0 0 0 0 0 0 0 0 
0 0 0 0 0 0 0 0 0 
0 0 0 0 0 0 0 0 0 
0 0 0 0 0 0 0 0 0 
0 0 0 0 0 0 0 0 0 
0 0 0 0 0 0 0 0 0 
0 0 0 0 0 0 0 0 0 
0 0 0 0 0 0 0 0 0 
0 0 0 0 0 0 0 0 0 
0 0 0 0 0 0 0 0 0 
0 0 0 0 0 0 0 0 0 
0 0 0 0 0 0 0 0 0 
0 0 0 0 0 0 0 0 0 
0 0 0 0 0 0 0 0 0 
0 0 0 0 0 0 0 0 0 
0 0 0 0 0 0 0 0 0 
0 0 0 0 0 0 0 0 0 
0 0 0 0 0 0 0 0 0 
0 0 0 0 0 0 0 0 0 
0 0 0 0 0 0 0 0 0 
0 0 0 0 0 0 0 0 0 
0 0 0 0 0 0 0 0 0 
0 0 0 0 0 0 0 0 0 
0 0 0 0 0 0 0 0 0 
0 0 0 0 0 0 0 0 0 
0 0 0 0 0 0 0 0 0 
0 0 0 0 0 0 0 0 0 
0 0 0 0 0 0 0 0 0 
0 0 0 0 0 0 0 0 0 
0 0 0 0 0 0 0 0 0 
0 0 0 0 0 0 0 0 0 
0 0 0 0 0 0 0 0 0 
0 0 0 0 0 0 0 0 0 
0 0 0 0 0 0 0 0 0 
0 0 0 0 0 0 0 0 0 
0 0 0 0 0 0 0 0 0 
0 0 0 0 0 0 0 0 0 
0 0 0 0 0 0 0 0 0 
0 0 0 0 0 0 0 0 0 
0 0 0 0 0 0 0 0 0 
0 0 0 0 0 0 0 0 0 
0 0 0 0 0 0 0 0 0 
0 0 0 0 0 0 0 0 0 
0 0 0 0 0 0 0 0 0 
0 0 0 0 0 0 0 0 0 
0 0 0 0 0 0 0 0 0 
0 0 0 0 0 0 0 0 0 
0 0 0 0 0 0 0 0 0 
0 0 0 0 0 0 0 0 0 
0 0 0 0 0 0 0 0 0 
0 0 0 0 0 0 0 0 0 
0 0 0 0 0 0 0 0 0 
0 0 0 0 0 0 0 0 0 
0 0 0 0 0 0 0 0 0 
0 0 0 0 0 0 0 0 0 
0 0 0 0 0 0 0 0 0 
0 0 0 0 0 0 0 0 0 
0 0 0 0 0 0 0 0 0 
0 0 0 0 0 0 0 0 0 
0 0 0 0 0 0 0 0 0 
0 0 0 0 0 0 0 0 0 
0 0 0 0 0 0 0 0 0 
0 0 0 0 0 0 0 0 0 
0 0 0 0 0 0 0 0 0 
0 0 0 0 0 0 0 0 0 
0 0 0 0 0 0 0 0 0 
0 0 0 0 0 0 0 0 0 
0 0 0 0 0 0 0 0 0 
0 0 0 0 0 0 0 0 0 
0 0 0 0 0 0 0 0 0 
0 0 0 0 0 0 0 0 0 
0 0 0 0 0 0 0 0 0 
0 0 0 0 0 0 0 0 0 
0 0 0 0 0 0 0 0 0 
0 0 0 0 0 0 0 0 0 
0 0 0 0 0 0 0 0 0 
0 0 0 0 0 0 0 0 0 
0 0 0 0 0 0 0 0 0 
0 0 0 0 0 0 0 0 0 
0 0 0 0 0 0 0 0 0 
0 0 0 0 0 0 0 0 0 
0 0 0 0 0 0 0 0 0 
0 0 0 0 0 0 0 0 0 
0 0 0 0 0 0 0 0 0 
0 0 0 0 0 0 0 0 0 
0 0 0 0 0 0 0 0 0 
0 0 0 0 0 0 0 0 0 
0 0 0 0 0 0 0 0 0 
0 0 0 0 0 0 0 0 0 
0 0 0 0 0 0 0 0 0 
0 0 0 0 0 0 0 0 0 
0 0 0 0 0 0 0 0 0 
0 0 0 0 0 0 0 0 0 
0 0 0 0 0 0 0 0 0 
0 0 0 0 0 0 0 0 0 
0 0 0 0 0 0 0 0 0 
0 0 0 0 0 0 0 0 0 
0 0 0 0 0 0 0 0 0 
0 0 0 0 0 0 0 0 0 
0 0 0 0 0 0 0 0 0 
0 0 0 0 0 0 0 0 0 
0 0 0 0 0 0 0 0 0 
0 0 0 0 0 0 0 0 0 
0 0 0 0 0 0 0 0 0 
0 0 0 0 0 0 0 0 0 
0 0 0 0 0 0 0 0 0 
0 0 0 0 0 0 0 0 0 
0 0 0 0 0 0 0 0 0 
0 0 0 0 0 0 0 0 0 
0 0 0 0 0 0 0 0 0 
0 0 0 0 0 0 0 0 0 
0 0 0 0 0 0 0 0 0 
0 0 0 0 0 0 0 0 0 
0 0 0 0 0 0 0 0 0 
0 0 0 0 0 0 0 0 0 
0 0 0 0 0 0 0 0 0 
0 0 0 0 0 0 0 0 0 
0 0 0 0 0 0 0 0 0 
0 0 0 0 0 0 0 0 0 
0 0 0 0 0 0 0 0 0 
0 0 0 0 0 0 0 0 0 
0 0 0 0 0 0 0 0 0 
0 0 0 0 0 0 0 0 0 
0 0 0 0 0 0 0 0 0 
0 0 0 0 0 0 0 0 0 
0 0 0 0 0 0 0 0 0 
0 0 0 0 0 0 0 0 0 
0 0 0 0 0 0 0 0 0 
0 0 0 0 0 0 0 0 0 
0 0 0 0 0 0 0 0 0 
0 0 0 0 0 0 0 0 0 
0 0 0 0 0 0 0 0 0 
0 0 0 0 0 0 0 0 0 
0 0 0 0 0 0 0 0 0 
0 0 0 0 0 0 0 0 0 
0 0 0 0 0 0 0 0 0 
0 0 0 0 0 0 0 0 0 
0 0 0 0 0 0 0 0 0 
0 0 0 0 0 0 0 0 0 
0 0 0 0 0 0 0 0 0 
0 0 0 0 0 0 0 0 0 
0 0 0 0 0 0 0 0 0 
0 0 0 0 0 0 0 0 0 
0 0 0 0 0 0 0 0 0 
0 0 0 0 0 0 0 0 0 
0 0 0 0 0 0 0 0 0 
0 0 0 0 0 0 0 0 0 
0 0 0 0 0 0 0 0 0 
0 0 0 0 0 0 0 0 0 
0 0 0 0 0 0 0 0 0 
0 0 0 0 0 0 
v 3 890 double
0.000357314 0.000177477 0.000520371 -0.000686861 0.00016548 0.000334488 -0.000157158 -0.000182834 -0.000180717 
-0.000596199 0.000681391 0.000444388 -0.000107025 0.00035639 7.22314e-06 -0.000199934 -7.48948e-05 0.000594332 
-0.000278825 -0.000736932 0.000528551 -6.96183e-05 0.000165658 0.000651252 -0.000557183 0.000623487 0.000803494 
-0.000968456 0.000464545 0.000206001 0.000497365 0.000211227 0.000245842 -0.000167278 0.000101097 -0.000221004 
-0.000249884 -0.00105051 -6.19186e-05 0.000349782 -0.000983094 0.000199151 -1.56809e-05 0.000878339 0.00114714 
-0.000991381 0.000168909 6.32149e-05 0.00116945 0.000235423 0.000117437 0.000271977 9.82973e-05 -0.000113483 
-0.000960178 -0.00171556 -6.15857e-05 0.000790503 -0.00227592 0.00104421 -4.29356e-05 -0.000606607 0.000939335 
-3.76548e-05 -0.000467267 0.00010701 0.000481155 0.000473318 0.000776148 0.000274292 0.000101105 0.000102654 
-0.000129023 -0.00155225 0.000792014 -0.000312633 -0.000621055 0.0010163 -0.000325084 0.000616459 0.000700291 
0.00015612 0.000877301 0.00074548 0.000392322 0.00124209 0.00110876 0.000509819 -0.000314816 0.000240492 
-0.000297204 -0.000854141 0.000359047 -0.000643268 -0.00071763 0.000957464 -0.0012442 -0.000198185 0.000251336 
-0.000226671 -0.000754504 1.51857e-05 0.000625237 0.000316388 0.00241492 0.00109808 0.000496371 0.0010388 
0.000381415 0.000244637 0.000428569 0.000123728 0.000470436 0.000189738 -3.33963e-05 0.000963222 -0.000168036 
-0.000217082 7.02471e-05 0.000102187 0.00058874 -0.000750781 0.000432845 0.00446706 0.00386159 0.000874421 
0.000365675 -0.00307938 0.000934924 -0.000661466 -0.00133164 0.00195098 -0.000540887 0.000523398 0.000897587 
-0.000528551 -0.000392 1.09439e-05 0.00113856 -0.00107149 0.000559196 0.00494989 0.00582859 0.000813338 
-0.00166273 -0.00175692 -0.000232712 -0.00137346 -0.000267461 0.00216525 -6.41771e-05 2.01705e-05 0.000842722 
-0.000395939 0.00142048 6.64485e-05 -0.000363988 0.000406996 0.000297568 -0.002296 0.00172223 0.000893028 
0.000290743 -0.000638795 0.000496038 -0.000226836 -0.00196584 0.000830622 -0.00387105 -0.00409092 0.00137176 
-0.000478024 -0.000900694 0.000937941 -0.000183287 0.00032501 -7.27664e-05 -0.00021063 0.000577347 0.000195269 
-0.000663073 0.000287251 0.000405305 -0.000136012 -0.0012127 0.000233842 0.000277944 -0.000559183 0.000697394 
-0.000738102 -0.00142397 0.000451485 -0.00144243 -0.00122406 0.000481989 0.00857397 0.0112191 -0.00484498 
9.84543e-06 0.000317124 2.93287e-05 -9.49029e-05 0.00130395 0.00107268 -0.000167806 -5.29546e-05 8.72795e-05 
-0.00014229 -0.0013154 0.000721686 -0.000856172 -0.000444054 0.000509599 0.000430325 -0.00171591 0.000221957 
-0.000226197 -6.45627e-05 0.00116134 -0.000498566 0.000427569 0.000524274 -0.000965765 -0.00119304 0.000568755 
-0.00140816 -0.000656876 0.000645574 -0.00125384 -0.000332506 -0.000403825 -0.000193284 -8.96195e-05 0.000845346 
3.47524e-05 -0.00116843 0.000736255 -0.000259167 -0.000426384 5.1143e-05 -0.000190962 0.000166342 0.00038403 
0.000392383 -2.9918e-05 0.00030108 0.000684908 0.000700555 4.94812e-06 -0.000344463 -8.3143e-05 0.000269692 
-0.00195828 -0.000633093 0.000462864 -0.00359244 -0.00178206 0.00183184 -0.00307448 -0.00072041 0.000826363 
-0.000515647 -0.000605053 0.000375194 0.000753675 0.00054699 0.00114687 -0.000295853 -0.000142683 0.000175317 
0.000153345 0.000467742 0.000282997 -0.00112682 -0.000134202 0.000145128 -0.00229893 0.00202693 -0.00028142 
-0.000202618 -0.000314086 0.000936058 -0.000372458 0.000670389 -0.000482025 -0.00102753 -0.000106628 0.000712086 
0.000152924 -0.000410461 0.00154191 -0.0010369 0.000425667 0.000983347 -0.000609147 -0.000265025 0.00180573 
-0.00063016 -8.16696e-05 0.00050406 -0.000166447 0.000635597 0.000296761 -0.000226189 1.51121e-05 -2.34388e-05 
-0.000661356 -0.0012029 0.00070535 -0.00111443 -0.000695592 0.00122511 -0.000224629 5.20699e-05 0.00101111 
-0.000148609 0.000237299 0.00121972 -0.000461803 -0.000176762 0.000743294 -6.03665e-06 -0.000147093 -0.000836559 
-0.00073857 -0.000804082 0.000624918 -0.000479008 -0.00065868 0.00117219 -0.00063711 -0.000271761 0.00111667 
-0.000372236 -0.000166883 4.16608e-05 -0.000581291 -0.000437799 0.000742863 -0.000125949 -0.000339192 0.00156633 
0.00104673 -0.000636321 0.00100769 0.000587803 0.000139405 0.00130535 6.64063e-05 1.80461e-05 0.000532766 
0.000251713 0.000460936 0.000914555 -1.14532e-05 0.000481066 0.00139735 -0.000639754 0.000264838 0.001941 
0.00149947 -0.00259271 0.000677085 0.00110942 -0.00121395 0.0017389 9.14991e-05 3.85079e-05 -0.0021469 
0.00136336 -0.00133214 0.000229017 -0.000210428 -0.000939929 0.00491541 0.000387701 7.98791e-05 -1.72649e-05 
0.000934041 0.00190495 -0.00221978 -0.000284989 0.0013356 0.000715155 -0.000580562 -0.000670485 -0.000285871 
0.00120654 0.000393895 0.00130878 0.00232705 -0.00419831 0.00394692 0.000338616 0.0006103 0.000525065 
-0.000928482 8.96682e-05 0.00111286 0.000262426 0.0026597 0.0033704 -0.00105093 0.0011764 0.000376223 
-0.00308632 -0.0021183 -0.00446152 0.00137664 -0.000662671 0.000514064 -0.0001382 0.000622817 0.000969763 
-0.00141427 -0.00119922 0.000840778 -0.000558649 -0.00250473 0.00126501 -0.00122705 -0.00013579 0.00149364 
-0.00254718 -0.00165118 0.000251348 -0.000242816 0.00103511 -0.000309032 0.00016086 -0.000937781 0.00120381 
-0.000532523 -0.000860494 0.000620969 -0.00265939 -0.00092681 0.00226566 -0.000726321 -0.000483672 0.00264894 
-0.000698051 -5.54707e-05 0.000428156 8.6737e-05 5.91737e-05 0.00129746 0.000186997 0.000129409 0.00113261 
-0.000671853 0.000542696 0.00142734 0.000494334 0.000419404 0.00253805 0.000175341 8.96889e-05 0.000368053 
-0.000677768 0.000476347 0.00164602 -0.00114752 0.000159942 0.000200976 -0.000779292 0.000146397 0.0016428 
-0.000683984 -0.00199158 -0.000744521 0.000230417 0.000413505 -0.000537446 0.000366359 -0.000139429 -0.00019479 
0.000646927 -0.000398732 0.000766315 -0.000758818 0.000655995 0.00633647 -0.000946512 0.000119396 0.00497781 
0.000835173 -0.000207857 0.00289336 -0.00164205 0.00100663 -0.000357441 -0.000923072 -0.00243409 -0.00245146 
0.000113261 -0.000360721 0.000489911 4.55259e-05 -0.000983895 0.00305737 0.00157776 0.000155218 0.00131641 
-0.000133931 5.22295e-05 -0.00162403 0.000311033 0.000384086 0.00100393 -0.000534326 0.00104172 0.000510513 
0.00136029 -0.00310508 0.000385899 0.000798344 -0.00109384 0.00208619 0.00056075 -0.000730702 0.00287864 
0.00158529 0.000108637 0.00226727 -0.000177825 -0.00178262 0.00178194 1.4625e-05 -0.00123332 0.000235476 
-0.000312491 0.000800611 0.00090123 -0.000500038 -0.00101193 0.00270233 0.00552107 -0.00309298 0.00298141 
0.00677379 -0.000873167 0.00542762 0.00598809 -0.000256996 0.00992373 -0.000188499 0.000234856 -2.63977e-05 
-0.000102106 0.000994308 0.000633621 0.0015326 7.1761e-06 0.000720316 0.00209876 -0.00730336 0.00538694 
0.00162919 -7.50767e-06 0.000693357 0.00112069 -0.000900456 0.00207968 -0.000282423 -0.00159346 -0.000240655 
0.00225435 -0.00227502 -0.000341591 0.00193393 -0.000908274 -0.000199828 0.00161451 -0.000679481 0.00104064 
0.000131026 0.000477524 0.00111423 -0.000561563 0.00113577 -2.92274e-05 -0.000457061 -0.000520882 0.000203342 
-0.000544508 -0.00363563 0.00077574 -0.00373957 -1.83839e-05 -0.00244154 0.000714122 -0.00216299 0.00135765 
0.00125948 0.000334863 0.00169501 -0.000392045 -6.46664e-05 0.000155115 -0.0010549 -0.00120326 0.00365348 
-0.000927608 -0.00150219 0.00184852 -0.000883452 -0.00318459 3.04745e-05 -0.000965387 -0.00173096 0.000420069 
-0.000121021 0.000248248 3.16094e-05 -0.0011128 -0.00062886 0.00143777 -0.00106839 -0.00117145 0.00119663 
-0.000950542 -0.00135868 0.00299663 0.000359182 -0.00181834 0.00045248 -0.00165071 -0.00249876 0.000315771 
-5.25334e-05 -0.00216959 0.000783818 -4.5141e-05 0.000689715 0.000534987 -4.6664e-05 0.00128089 0.00164551 
-0.000673052 -0.000554273 0.0018792 -0.00150777 -0.00161812 0.000531352 -0.00140979 -0.00128624 0.00114931 
-0.000374901 -0.00156942 -8.40431e-05 -0.000381413 -0.000600578 0.000183725 -0.000264325 0.000602149 0.00159692 
0.00338743 -0.000607757 0.0052483 0.000351127 -1.87175e-05 0.00277077 -0.00150862 -0.000139441 0.00182053 
0.000429116 0.000653975 0.00172093 -1.5417e-05 -0.000706557 0.000233096 -0.000300952 0.0011079 0.00116794 
0.000904622 0.00237904 0.000540745 -0.00256168 -0.000123025 0.000920996 -0.00144475 -0.00287889 0.00104691 
0.000237619 0.00127545 0.00165139 0.000232907 0.000713905 0.000926105 -0.00151559 -6.7804e-05 -0.000243255 
-0.00133511 -0.00220856 0.00149257 -0.00170467 -0.0028874 0.000698086 -0.000879127 -0.00010715 0.00291555 
-0.000389008 0.00045222 0.000266951 0.000146283 2.04025e-05 0.00151037 -0.000110858 -0.000672221 7.69536e-05 
-0.00197179 0.000277072 0.0015265 -0.0006006 8.69852e-05 0.00334919 -0.00122893 -0.00107415 0.000880092 
-0.000419971 -0.00192216 0.00261937 2.4147e-05 -0.000975658 0.00236229 -0.000741259 0.000114743 0.00390577 