# vtk DataFile Version 4.0
Generated by LIGGGHTS
ASCII
DATASET POLYDATA
POINTS 890 float
0.00139448 -0.0460483 0.00394219 -0.0192774 -0.0418219 0.00396554 -0.0107218 -0.0446236 0.00398969 
0.0110719 -0.0445665 0.00398127 0.0193528 -0.0417376 0.00397427 -0.0261707 -0.0378494 0.00399657 
-0.0130498 -0.0369 0.00394537 -0.00369521 -0.0397768 0.00393732 0.00503479 -0.0390281 0.0039262 
0.0126387 -0.0367551 0.00398307 0.0262558 -0.0377681 0.00396125 -0.0323079 -0.0327776 0.00394686 
-0.0199327 -0.0328554 0.00397981 -0.0065922 -0.0322533 0.00398434 0.00678676 -0.0313031 0.00396148 
0.0197299 -0.0331859 0.00393106 0.0324542 -0.0326206 0.00393888 -0.033751 -0.0249534 0.00395479 
-0.0261271 -0.0277191 0.0039191 -0.0134535 -0.0281746 0.00401481 -0.00129202 -0.0263269 0.00394509 
0.0135662 -0.0271184 0.0039659 0.0376119 -0.0265921 0.00393677 -0.0408201 -0.0212617 0.00394889 
-0.0276171 -0.0198182 0.00399113 -0.0200751 -0.022572 0.00395581 -0.00823891 -0.0214263 0.00392979 
0.00610359 -0.0233933 0.00395594 0.0219863 -0.0225531 0.00403069 0.0296674 -0.0247377 0.00393896 
-0.0146706 -0.0167539 0.00413864 -0.000933568 -0.0183165 0.00399468 0.00646873 -0.0154677 0.00397635 
0.0145109 -0.0192127 0.0039879 0.0352159 -0.0190336 0.00392503 0.0428565 -0.0167894 0.00396984 
-0.0379537 -0.0137256 0.00389106 -0.0300502 -0.0122309 0.00398918 -0.0221311 -0.0138676 0.0039833 
-0.00720199 -0.0133406 0.00391881 0.000534743 -0.0101815 0.00395119 0.0132038 -0.0113237 0.00393545 
0.020886 -0.0144074 0.00395009 0.0344993 -0.0111385 0.00397759 -0.0449373 -0.00986799 0.00397619 
-0.0233903 -0.0059595 0.00396279 -0.0151712 -0.00882745 0.00394013 0.0194792 -0.00648925 0.00394913 
0.0272762 -0.00784966 0.00397195 0.0451055 -0.00917932 0.00393253 -0.0395268 -0.00400111 0.00396829 
-0.0312531 -0.00435521 0.00393267 -0.0170457 -0.00109092 0.00397709 -0.00900555 -0.00380108 0.00398579 
-0.00183259 -0.000293094 0.00397133 0.00865505 -0.0036097 0.00394065 0.0314483 -0.0010774 0.00390105 
0.0387137 -0.0044197 0.00394171 -0.0460135 0.00145143 0.00393763 -0.0315808 0.00374225 0.0039775 
-0.00840241 0.00414822 0.0039582 0.00566661 0.00375514 0.00397004 0.0225095 0.00290562 0.00393102 
0.0459747 0.000122079 0.00398115 -0.045016 0.0094511 0.00392193 -0.0237404 0.00546328 0.00396513 
-0.0158839 0.00679133 0.00394974 -0.00125911 0.00767494 0.00394219 0.0130738 0.00735916 0.00395754 
0.0307318 0.00685453 0.00395956 0.0391015 0.00630145 0.00397272 -0.0370649 0.0104141 0.00396691 
-0.02914 0.0113406 0.00396001 -0.0209436 0.0129242 0.00394808 -0.00983191 0.0119749 0.00396913 
0.00636181 0.0116782 0.00399739 0.0203631 0.0105988 0.00395752 0.0274923 0.0141494 0.00398406 
0.035433 0.0134632 0.00392932 0.0443549 0.0123056 0.00394374 -0.0426132 0.0171605 0.00395547 
-0.0343671 0.0179165 0.00394596 -0.0262947 0.0187863 0.00393565 -0.0139158 0.0188565 0.00397719 
-0.00584412 0.0188532 0.00395964 0.00505152 0.0195186 0.00394043 0.0135051 0.0153132 0.00395689 
0.0208039 0.0185999 0.00395774 -0.0388395 0.0246034 0.00396268 -0.0203867 0.0241136 0.00397277 
0.0279606 0.0221596 0.0039248 0.041557 0.0197489 0.00395122 -0.013087 0.0273019 0.00395177 
-0.000745282 0.024955 0.00396603 0.00888382 0.0264948 0.00395784 0.0174122 0.025854 0.00393859 
0.0251771 0.0296204 0.0039425 0.0375725 0.0266304 0.00393088 -0.0340855 0.0309941 0.00392253 
-0.0261854 0.0300061 0.00394579 -0.0187663 0.0329016 0.0039574 -0.00602028 0.0309482 0.00393837 
0.00186543 0.0324676 0.0039379 0.00964944 0.0344151 0.00398084 0.0176167 0.0338471 0.00397071 
-0.0259451 0.0379954 0.00406185 -0.0116599 0.0365821 0.00396718 -0.00379686 0.0385875 0.00396487 
0.0265617 0.0375498 0.00397039 -0.0189703 0.0418874 0.00398052 -0.0113835 0.0445721 0.00398271 
0.00408159 0.040107 0.00395614 0.011777 0.0421017 0.00394018 0.0197172 0.0415848 0.00398077 
-0.00114479 0.0460703 0.00394466 -0.00457636 -0.0458188 0.00912997 -0.0259719 -0.0326988 0.0100951 
0.000210467 -0.0333487 0.00801819 -0.00678802 -0.0266507 0.0097414 0.0181437 -0.0256971 0.0103247 
0.0249623 -0.0292846 0.00843708 -0.0136278 -0.0225445 0.00966029 0.0108402 -0.0225814 0.010281 
0.0405096 -0.0218798 0.00960545 -0.0431835 -0.0160043 0.00940513 -0.0341875 -0.0186683 0.0087791 
0.0278938 -0.0172271 0.00650042 -0.0355193 -0.00842876 0.00926125 -0.00405774 -0.00683545 0.00948216 
0.00675622 -0.00933396 0.00907824 -0.0457493 -0.00416658 0.00955253 -0.0249896 -0.000268042 0.00933938 
0.00278188 -0.00246811 0.0100855 0.0154164 1.90769e-05 0.00600898 0.0219611 -0.00244999 0.0103411 
-0.038938 0.00332539 0.00703421 0.0270967 0.0036462 0.0103708 0.0402256 0.00083216 0.0096645 
-0.00569779 0.00945318 0.0103159 0.0455415 0.00672998 0.0094851 -0.015246 0.0121458 0.00981536 
-0.000105858 0.0146405 0.00757662 -0.0309335 0.0244061 0.00701104 -0.00783817 0.0244897 0.00924024 
0.0126168 0.0214634 0.00890505 0.0346118 0.0204616 0.00793006 0.0134718 0.0293097 0.00991437 
0.0325421 0.032563 0.00547795 -0.00592926 0.0436385 0.00978043 0.00738045 0.0454296 0.00967698 
0.00791593 -0.0453495 0.0115491 -0.0226974 -0.0399105 0.0109097 -0.015414 -0.0433425 0.0107669 
0.00139408 -0.0407692 0.0107532 0.0146169 -0.041141 0.0103835 -0.00860982 -0.039079 0.0101835 
0.00814066 -0.0363135 0.0107393 0.0227305 -0.0396206 0.0108976 0.0295462 -0.0353266 0.0107871 
-0.0338762 -0.0311339 0.0115587 -0.0130702 -0.0324639 0.0107716 -0.00505734 -0.0330704 0.0141161 
0.0154688 -0.0331983 0.0106316 -0.0197349 -0.0276922 0.0100659 0.00583951 -0.0287063 0.0114289 
0.0351689 -0.0296493 0.0108895 -0.0387362 -0.0248879 0.0107227 -0.029208 -0.0246342 0.0105548 
0.000209248 -0.0231122 0.0110435 0.0326086 -0.0220447 0.0108177 -0.0271002 -0.015749 0.0108999 
-0.0192443 -0.0171414 0.0112085 -0.00565283 -0.0176499 0.0104298 0.00192228 -0.015328 0.0110096 
0.00958482 -0.01538 0.0134006 0.0200296 -0.0180086 0.0109894 0.027117 -0.0161654 0.0143497 
0.0365085 -0.0150766 0.010674 -0.0376022 -0.013891 0.0146655 -0.0109561 -0.0107312 0.0103906 
0.022825 -0.0104017 0.0105583 0.044175 -0.0129076 0.0109358 -0.044817 -0.0102362 0.0146027 
-0.0276758 -0.00770772 0.010414 -0.0198609 -0.00925437 0.0103364 0.0149432 -0.00976748 0.0115225 
0.0307531 -0.00961139 0.0109065 0.0384044 -0.0074167 0.0115732 -0.0394709 -0.00399041 0.0145234 
-0.0330141 -0.000525704 0.0106673 -0.0143643 -0.00357346 0.0113786 -0.007386 0.000252425 0.0108252 
0.0101326 -0.0034965 0.0133014 0.0328911 -0.00165714 0.011657 0.0458167 -0.00474036 0.0104484 
-0.0180389 0.0034701 0.0108556 0.0101763 0.00393461 0.0105382 -0.0456848 0.0055035 0.0107903 
-0.0324239 0.0074354 0.0110212 -0.0229384 0.00973555 0.0109652 -0.0114986 0.00576011 0.0148268 
0.00307525 0.00791054 0.0106204 0.0179309 0.00629609 0.0102044 0.0345936 0.00626678 0.0109059 
-0.0441228 0.0133176 0.0107835 -0.0363197 0.0144233 0.0108229 0.0113598 0.0117564 0.0107592 
0.0242907 0.011071 0.0108896 0.0317847 0.0137025 0.0109781 0.0398013 0.0122805 0.0104685 
-0.0284919 0.0154092 0.0107806 -0.0209283 0.0177296 0.0102884 -0.00868717 0.0168001 0.0111079 
0.00612787 0.0176611 0.0115883 0.0180652 0.015998 0.0109546 0.0257984 0.0189627 0.0108588 
-0.040923 0.0209844 0.0107399 -0.0332049 0.0210987 0.0138906 -0.01563 0.0236202 0.0105229 
-0.000862994 0.0214703 0.0115901 0.0197277 0.0241169 0.0113234 0.0414956 0.0199528 0.011899 
-0.0366741 0.0278696 0.0112261 -0.0240637 0.0250564 0.0109898 -0.0017575 0.0294595 0.0104515 
0.00587235 0.027348 0.0112919 0.0293971 0.0269194 0.0101471 0.0371884 0.0271458 0.0118691 
-0.0312479 0.033782 0.0107699 -0.0232984 0.0330027 0.0107152 -0.0119851 0.0302845 0.0128969 
0.0226562 0.0315678 0.0112175 0.0305133 0.0341044 0.013446 -0.0162111 0.0366171 0.0105032 
-0.00662819 0.0357757 0.010845 0.000829407 0.0385482 0.0110421 0.00874945 0.0375053 0.0112894 
0.0162806 0.0358279 0.0134784 0.0228178 0.0398414 0.0111632 -0.0135698 0.0440041 0.0118406 
0.0156259 0.0432931 0.0107868 0.000543461 0.0460462 0.0137128 -0.00923074 -0.0450617 0.0155136 
0.00161384 -0.0459884 0.0167435 -0.016085 -0.0431449 0.0190235 0.00710231 -0.04024 0.0176052 
0.0141823 -0.0438269 0.0179313 -0.0295292 -0.0353419 0.0167063 -0.0232434 -0.0397084 0.0188403 
-0.0109501 -0.0372127 0.0175506 -0.00338055 -0.0398637 0.0179492 0.0154759 -0.0359842 0.018056 
0.0267024 -0.0375153 0.0178305 -0.0194213 -0.0335361 0.0154681 0.00250026 -0.0338533 0.0165454 
0.021663 -0.0316181 0.0154308 0.0328492 -0.0322207 0.0180918 -0.0369302 -0.0274998 0.0180001 
-0.0289495 -0.0274888 0.017992 -0.015024 -0.0265087 0.0164136 -0.00531726 -0.0257723 0.0175518 
0.00195245 -0.0271716 0.0207932 0.0121794 -0.0285454 0.0162653 0.0279039 -0.0266341 0.015319 
0.0382774 -0.0253755 0.0168983 -0.0231115 -0.0227349 0.015349 0.00612312 -0.0217762 0.0166745 
0.0136433 -0.0217731 0.0202055 0.0209969 -0.023298 0.0173648 -0.0411419 -0.0206156 0.0170475 
-0.032355 -0.0196021 0.0164414 -0.0178611 -0.0186189 0.0197878 -0.0110071 -0.0166757 0.0161839 
-0.0012549 -0.0188503 0.0175655 0.016782 -0.014919 0.0175895 0.0341771 -0.0185448 0.0177946 
0.042181 -0.0183156 0.0165051 -0.0303432 -0.0115514 0.0168868 -0.022511 -0.0127353 0.0169981 
-0.0150873 -0.0099275 0.0171149 -0.00447986 -0.0117588 0.0157554 0.00512535 -0.0147303 0.0203006 
0.0446009 -0.0113088 0.0194016 0.00289517 -0.00827469 0.0159968 0.0110655 -0.00944576 0.0184952 
0.023216 -0.0095616 0.0185564 0.0335808 -0.00652376 0.0178798 -0.0294445 -0.00352299 0.0171134 
-0.0215358 -0.00435548 0.0163901 -0.0142904 -0.00237629 0.0193435 -0.00346055 -0.00347496 0.0166775 
0.0174262 -0.00419295 0.0166295 0.0267766 -0.0025589 0.016686 0.0457727 -0.00345319 0.0182761 
-0.0460222 5.18902e-05 0.0165654 -0.0390058 0.00420373 0.0149517 -0.0270276 0.00399283 0.0157626 
-0.0201511 0.00294089 0.0196093 -0.00268392 0.00443396 0.0157358 0.00492813 0.00212392 0.0162532 
0.0123931 0.00145165 0.0191338 0.0215998 0.00348789 0.016768 0.0387212 0.000215016 0.0174305 
-0.0332647 0.00692305 0.0197296 0.00705728 0.00973229 0.0172868 0.0149525 0.00874699 0.0172122 
[...]
POINT_DATA 890
FIELD FieldData 9
id 1 890 int
328 395 635 139 347 203 196 236 800 
586 677 582 256 398 603 449 396 177 
871 806 739 153 532 627 471 810 477 
860 28 388 90 611 521 602 671 169 
351 190 666 39 634 145 249 120 740 
876 755 176 134 46 275 731 62 11 
830 119 833 385 329 189 199 506 483 
873 675 702 82 197 319 738 538 307 
654 657 473 159 274 450 327 174 2 
10 276 575 787 426 534 14 138 180 
531 858 224 432 278 724 842 430 662 
418 462 35 469 408 298 53 89 349 
706 4 742 641 416 546 859 650 713 
883 85 692 216 630 198 601 192 874 
102 323 333 696 230 520 625 265 259 
401 570 244 96 461 227 698 67 594 
118 390 767 326 242 733 37 596 231 
376 179 101 613 17 65 598 571 80 
162 699 52 206 97 111 66 200 86 
142 664 413 649 779 667 341 113 33 
879 884 674 411 759 553 862 535 498 
682 563 659 105 44 257 250 530 849 
50 708 182 482 827 217 632 175 363 
195 809 140 653 804 317 816 228 689 
508 16 116 854 316 672 836 19 150 
478 440 748 222 869 123 405 289 680 
795 41 258 38 737 338 207 687 886 
392 851 690 409 776 608 467 778 218 
167 309 358 284 526 794 184 618 780 
310 544 429 799 59 888 758 221 523 
622 268 393 70 515 103 386 76 488 
636 55 354 668 855 322 252 215 599 
348 253 588 366 606 676 141 422 295 
5 239 367 514 568 628 18 375 350 
679 541 821 121 262 383 797 619 766 
694 64 808 313 77 171 765 460 229 
796 273 771 715 431 47 503 791 269 
489 501 438 63 751 364 7 377 314 
726 707 623 399 420 519 365 652 545 
812 382 880 743 337 504 673 126 110 
243 56 612 640 318 824 108 499 782 
404 271 864 517 474 370 651 286 343 
848 339 237 30 480 729 21 557 414 
576 94 292 133 99 406 645 585 223 
811 464 448 104 505 749 847 87 695 
397 251 456 655 315 311 22 308 92 
558 281 136 29 331 446 378 468 746 
166 129 455 578 547 254 727 844 114 
125 597 266 73 444 725 642 248 881 
723 42 419 802 722 290 638 721 149 
669 320 435 75 187 486 495 688 451 
291 417 373 701 803 424 700 479 280 
332 336 240 829 801 736 160 878 407 
445 875 882 605 433 297 205 164 720 
550 246 127 368 132 465 12 850 188 
463 107 660 510 761 522 161 788 838 
609 579 380 122 574 34 793 615 572 
428 334 285 381 705 714 128 775 870 
58 837 494 421 210 610 226 528 362 
559 518 148 845 744 734 154 524 91 
208 458 71 584 484 403 466 556 26 
757 491 637 36 616 840 457 507 437 
785 157 369 856 772 57 529 260 374 
43 452 683 402 83 644 817 728 852 
213 581 647 68 423 885 562 475 335 
300 857 219 209 25 1 470 115 648 
288 681 72 798 360 357 770 502 88 
106 711 747 492 626 600 6 569 69 
124 865 774 454 61 54 691 867 513 
344 325 294 389 819 245 685 567 697 
777 191 670 352 604 735 591 202 84 
45 193 490 573 345 359 238 173 493 
340 552 394 263 78 346 815 225 629 
853 178 3 877 439 583 589 220 40 
8 306 442 789 537 590 686 9 436 
481 807 756 212 15 863 305 633 186 
23 264 112 233 561 754 790 303 820 
500 98 768 784 764 781 147 425 509 
321 361 663 678 580 302 684 282 211 
709 283 732 135 301 117 704 170 717 
412 146 527 745 51 24 312 889 786 
371 551 137 763 826 214 277 621 299 
201 158 165 555 441 93 130 643 843 
20 272 400 716 487 324 658 156 270 
459 564 773 109 443 565 805 753 261 
476 384 356 718 631 304 841 890 548 
255 415 516 355 769 330 533 410 665 
646 185 434 485 593 511 496 342 27 
279 100 183 543 656 453 839 750 577 
831 614 296 287 783 540 814 752 539 
234 60 247 81 834 661 512 560 566 
168 536 835 181 152 172 823 143 887 
163 241 730 391 95 79 13 822 144 
825 554 472 194 427 267 49 131 741 
818 866 379 813 719 542 639 155 48 
31 235 832 232 592 703 712 595 74 
549 293 624 497 872 447 151 868 792 
620 617 693 372 204 861 710 32 762 
846 353 587 828 760 607 387 525 
type 1 890 int
1 1 1 1 1 1 1 1 1 
1 1 1 1 1 1 1 1 1 
1 1 1 1 1 1 1 1 1 
1 1 1 1 1 1 1 1 1 
1 1 1 1 1 1 1 1 1 
1 1 1 1 1 1 1 1 1 
1 1 1 1 1 1 1 1 1 
1 1 1 1 1 1 1 1 1 
1 1 1 1 1 1 1 1 1 
1 1 1 1 1 1 1 1 1 
1 1 1 1 1 1 1 1 1 
1 1 1 1 1 1 1 1 1 
1 1 1 1 1 1 1 1 1 
1 1 1 1 1 1 1 1 1 
1 1 1 1 1 1 1 1 1 
1 1 1 1 1 1 1 1 1 
1 1 1 1 1 1 1 1 1 
1 1 1 1 1 1 1 1 1 
1 1 1 1 1 1 1 1 1 
1 1 1 1 1 1 1 1 1 
1 1 1 1 1 1 1 1 1 
1 1 1 1 1 1 1 1 1 
1 1 1 1 1 1 1 1 1 
1 1 1 1 1 1 1 1 1 
1 1 1 1 1 1 1 1 1 
1 1 1 1 1 1 1 1 1 
1 1 1 1 1 1 1 1 1 
1 1 1 1 1 1 1 1 1 
1 1 1 1 1 1 1 1 1 
1 1 1 1 1 1 1 1 1 
1 1 1 1 1 1 1 1 1 
1 1 1 1 1 1 1 1 1 
1 1 1 1 1 1 1 1 1 
1 1 1 1 1 1 1 1 1 
1 1 1 1 1 1 1 1 1 
1 1 1 1 1 1 1 1 1 
1 1 1 1 1 1 1 1 1 
1 1 1 1 1 1 1 1 1 
1 1 1 1 1 1 1 1 1 
1 1 1 1 1 1 1 1 1 
1 1 1 1 1 1 1 1 1 
1 1 1 1 1 1 1 1 1 
1 1 1 1 1 1 1 1 1 
1 1 1 1 1 1 1 1 1 
1 1 1 1 1 1 1 1 1 
1 1 1 1 1 1 1 1 1 
1 1 1 1 1 1 1 1 1 
1 1 1 1 1 1 1 1 1 
1 1 1 1 1 1 1 1 1 
1 1 1 1 1 1 1 1 1 
1 1 1 1 1 1 1 1 1 
1 1 1 1 1 1 1 1 1 
1 1 1 1 1 1 1 1 1 
1 1 1 1 1 1 1 1 1 
1 1 1 1 1 1 1 1 1 
1 1 1 1 1 1 1 1 1 
1 1 1 1 1 1 1 1 1 
1 1 1 1 1 1 1 1 1 
1 1 1 1 1 1 1 1 1 
1 1 1 1 1 1 1 1 1 
1 1 1 1 1 1 1 1 1 
1 1 1 1 1 1 1 1 1 
1 1 1 1 1 1 1 1 1 
1 1 1 1 1 1 1 1 1 
1 1 1 1 1 1 1 1 1 
1 1 1 1 1 1 1 1 1 
1 1 1 1 1 1 1 1 1 
1 1 1 1 1 1 1 1 1 
1 1 1 1 1 1 1 1 1 
1 1 1 1 1 1 1 1 1 
1 1 1 1 1 1 1 1 1 
1 1 1 1 1 1 1 1 1 
1 1 1 1 1 1 1 1 1 
1 1 1 1 1 1 1 1 1 
1 1 1 1 1 1 1 1 1 
1 1 1 1 1 1 1 1 1 
1 1 1 1 1 1 1 1 1 
1 1 1 1 1 1 1 1 1 
1 1 1 1 1 1 1 1 1 
1 1 1 1 1 1 1 1 1 
1 1 1 1 1 1 1 1 1 
1 1 1 1 1 1 1 1 1 
1 1 1 1 1 1 1 1 1 
1 1 1 1 1 1 1 1 1 
1 1 1 1 1 1 1 1 1 
1 1 1 1 1 1 1 1 1 
1 1 1 1 1 1 1 1 1 
1 1 1 1 1 1 1 1 1 
1 1 1 1 1 1 1 1 1 
1 1 1 1 1 1 1 1 1 
1 1 1 1 1 1 1 1 1 
1 1 1 1 1 1 1 1 1 
1 1 1 1 1 1 1 1 1 
1 1 1 1 1 1 1 1 1 
1 1 1 1 1 1 1 1 1 
1 1 1 1 1 1 1 1 1 
1 1 1 1 1 1 1 1 1 
1 1 1 1 1 1 1 1 1 
1 1 1 1 1 1 1 1 
i 3 890 int
0 0 0 0 0 0 0 0 0 
0 0 0 0 0 0 0 0 0 
0 0 0 0 0 0 0 0 0 
0 0 0 0 0 0 0 0 0 
0 0 0 0 0 0 0 0 0 
0 0 0 0 0 0 0 0 0 
0 0 0 0 0 0 0 0 0 
0 0 0 0 0 0 0 0 0 
0 0 0 0 0 0 0 0 0 
0 0 0 0 0 0 0 0 0 
0 0 0 0 0 0 0 0 0 
0 0 0 0 0 0 0 0 0 
0 0 0 0 0 0 0 0 0 
0 0 0 0 0 0 0 0 0 
0 0 0 0 0 0 0 0 0 
0 0 0 0 0 0 0 0 0 
0 0 0 0 0 0 0 0 0 
0 0 0 0 0 0 0 0 0 
0 0 0 0 0 0 0 0 0 
0 0 0 0 0 0 0 0 0 
0 0 0 0 0 0 0 0 0 
0 0 0 0 0 0 0 0 0 
0 0 0 0 0 0 0 0 0 
0 0 0 0 0 0 0 0 0 
0 0 0 0 0 0 0 0 0 
0 0 0 0 0 0 0 0 0 
0 0 0 0 0 0 0 0 0 
0 0 0 0 0 0 0 0 0 
0 0 0 0 0 0 0 0 0 
0 0 0 0 0 0 0 0 0 
0 0 0 0 0 0 0 0 0 
0 0 0 0 0 0 0 0 0 
0 0 0 0 0 0 0 0 0 
0 0 0 0 0 0 0 0 0 
0 0 0 0 0 0 0 0 0 
0 0 0 0 0 0 0 0 0 
0 0 0 0 0 0 0 0 0 
0 0 0 0 0 0 0 0 0 
0 0 0 0 0 0 0 0 0 
0 0 0 0 0 0 0 0 0 
0 0 0 0 0 0 0 0 0 
0 0 0 0 0 0 0 0 0 
0 0 0 0 0 0 0 0 0 
0 0 0 0 0 0 0 0 0 
0 0 0 0 0 0 0 0 0 
0 0 0 0 0 0 0 0 0 
0 0 0 0 0 0 0 0 0 
0 0 0 0 0 0 0 0 0 
0 0 0 0 0 0 0 0 0 
0 0 0 0 0 0 0 0 0 
0 0 0 0 0 0 0 0 0 
0 0 0 0 0 0 0 0 0 
0 0 0 0 0 0 0 0 0 
0 0 0 0 0 0 0 0 0 
0 0 0 0 0 0 0 0 0 
0 0 0 0 0 0 0 0 0 
0 0 0 0 0 0 0 0 0 
0 0 0 0 0 0 0 0 0 
0 0 0 0 0 0 0 0 0 
0 0 0 0 0 0 0 0 0 
0 0 0 0 0 0 0 0 0 
0 0 0 0 0 0 0 0 0 
0 0 0 0 0 0 0 0 0 
0 0 0 0 0 0 0 0 0 
0 0 0 0 0 0 0 0 0 
0 0 0 0 0 0 0 0 0 
0 0 0 0 0 0 0 0 0 
0 0 0 0 0 0 0 0 0 
0 0 0 0 0 0 0 0 0 
0 0 0 0 0 0 0 0 0 
0 0 0 0 0 0 0 0 0 
0 0 0 0 0 0 0 0 0 
0 0 0 0 0 0 0 0 0 
0 0 0 0 0 0 0 0 0 
0 0 0 0 0 0 0 0 0 
0 0 0 0 0 0 0 0 0 
0 0 0 0 0 0 0 0 0 
0 0 0 0 0 0 0 0 0 
0 0 0 0 0 0 0 0 0 
0 0 0 0 0 0 0 0 0 
0 0 0 0 0 0 0 0 0 
0 0 0 0 0 0 0 0 0 
0 0 0 0 0 0 0 0 0 
0 0 0 0 0 0 0 0 0 
0 0 0 0 0 0 0 0 0 
0 0 0 0 0 0 0 0 0 
0 0 0 0 0 0 0 0 0 
0 0 0 0 0 0 0 0 0 
0 0 0 0 0 0 0 0 0 
0 0 0 0 0 0 0 0 0 
0 0 0 0 0 0 0 0 0 
0 0 0 0 0 0 0 0 0 
0 0 0 0 0 0 0 0 0 
0 0 0 0 0 0 0 0 0 
0 0 0 0 0 0 0 0 0 
0 0 0 0 0 0 0 0 0 
0 0 0 0 0 0 0 0 0 
0 0 0 0 0 0 0 0 0 
0 0 0 0 0 0 0 0 0 
0 0 0 0 0 0 0 0 0 
0 0 0 0 0 0 0 0 0 
0 0 0 0 0 0 0 0 0 
0 0 0 0 0 0 0 0 0 
0 0 0 0 0 0 0 0 0 
0 0 0 0 0 0 0 0 0 
0 0 0 0 0 0 0 0 0 
0 0 0 0 0 0 0 0 0 
0 0 0 0 0 0 0 0 0 
0 0 0 0 0 0 0 0 0 
0 0 0 0 0 0 0 0 0 
0 0 0 0 0 0 0 0 0 
0 0 0 0 0 0 0 0 0 
0 0 0 0 0 0 0 0 0 
0 0 0 0 0 0 0 0 0 
0 0 0 0 0 0 0 0 0 
0 0 0 0 0 0 0 0 0 
0 0 0 0 0 0 0 0 0 
0 0 0 0 0 0 0 0 0 
0 0 0 0 0 0 0 0 0 
0 0 0 0 0 0 0 0 0 
0 0 0 0 0 0 0 0 0 
0 0 0 0 0 0 0 0 0 
0 0 0 0 0 0 0 0 0 
0 0 0 0 0 0 0 0 0 
0 0 0 0 0 0 0 0 0 
0 0 0 0 0 0 0 0 0 
0 0 0 0 0 0 0 0 0 
0 0 0 0 0 0 0 0 0 
0 0 0 0 0 0 0 0 0 
0 0 0 0 0 0 0 0 0 
0 0 0 0 0 0 0 0 0 
0 0 0 0 0 0 0 0 0 
0 0 0 0 0 0 0 0 0 
0 0 0 0 0 0 0 0 0 
0 0 0 0 0 0 0 0 0 
0 0 0 0 0 0 0 0 0 
0 0 0 0 0 0 0 0 0 
0 0 0 0 0 0 0 0 0 
0 0 0 0 0 0 0 0 0 
0 0 0 0 0 0 0 0 0 
0 0 0 0 0 0 0 0 0 
0 0 0 0 0 0 0 0 0 
0 0 0 0 0 0 0 0 0 
0 0 0 0 0 0 0 0 0 
0 0 0 0 0 0 0 0 0 
0 0 0 0 0 0 0 0 0 
0 0 0 0 0 0 0 0 0 
0 0 0 0 0 0 0 0 0 
0 0 0 0 0 0 0 0 0 
0 0 0 0 0 0 0 0 0 
0 0 0 0 0 0 0 0 0 
0 0 0 0 0 0 0 0 0 
0 0 0 0 0 0 0 0 0 
0 0 0 0 0 0 0 0 0 
0 0 0 0 0 0 0 0 0 
0 0 0 0 0 0 0 0 0 
0 0 0 0 0 0 0 0 0 
0 0 0 0 0 0 0 0 0 
0 0 0 0 0 0 0 0 0 
0 0 0 0 0 0 0 0 0 
0 0 0 0 0 0 0 0 0 
0 0 0 0 0 0 0 0 0 
0 0 0 0 0 0 0 0 0 
0 0 0 0 0 0 0 0 0 
0 0 0 0 0 0 0 0 0 
0 0 0 0 0 0 0 0 0 
0 0 0 0 0 0 0 0 0 
0 0 0 0 0 0 0 0 0 
0 0 0 0 0 0 0 0 0 
0 0 0 0 0 0 0 0 0 
0 0 0 0 0 0 0 0 0 
0 0 0 0 0 0 0 0 0 
0 0 0 0 0 0 0 0 0 
0 0 0 0 0 0 0 0 0 
0 0 0 0 0 0 0 0 0 
0 0 0 0 0 0 0 0 0 
0 0 0 0 0 0 0 0 0 
0 0 0 0 0 0 0 0 0 
0 0 0 0 0 0 0 0 0 
0 0 0 0 0 0 0 0 0 
0 0 0 0 0 0 0 0 0 
0 0 0 0 0 0 0 0 0 
0 0 0 0 0 0 0 0 0 
0 0 0 0 0 0 0 0 0 
0 0 0 0 0 0 0 0 0 
0 0 0 0 0 0 0 0 0 
0 0 0 0 0 0 0 0 0 
0 0 0 0 0 0 0 0 0 
0 0 0 0 0 0 0 0 0 
0 0 0 0 0 0 0 0 0 
0 0 0 0 0 0 0 0 0 
0 0 0 0 0 0 0 0 0 
0 0 0 0 0 0 0 0 0 
0 0 0 0 0 0 0 0 0 
0 0 0 0 0 0 0 0 0 
0 0 0 0 0 0 0 0 0 
0 0 0 0 0 0 0 0 0 
0 0 0 0 0 0 0 0 0 
0 0 0 0 0 0 0 0 0 
0 0 0 0 0 0 0 0 0 
0 0 0 0 0 0 0 0 0 
0 0 0 0 0 0 0 0 0 
0 0 0 0 0 0 0 0 0 
0 0 0 0 0 0 0 0 0 
0 0 0 0 0 0 0 0 0 
0 0 0 0 0 0 0 0 0 
0 0 0 0 0 0 0 0 0 
0 0 0 0 0 0 0 0 0 
0 0 0 0 0 0 0 0 0 
0 0 0 0 0 0 0 0 0 
0 0 0 0 0 0 0 0 0 
0 0 0 0 0 0 0 0 0 
0 0 0 0 0 0 0 0 0 
0 0 0 0 0 0 0 0 0 
0 0 0 0 0 0 0 0 0 
0 0 0 0 0 0 0 0 0 
0 0 0 0 0 0 0 0 0 
0 0 0 0 0 0 0 0 0 
0 0 0 0 0 0 0 0 0 
0 0 0 0 0 0 0 0 0 
0 0 0 0 0 0 0 0 0 
0 0 0 0 0 0 0 0 0 
0 0 0 0 0 0 0 0 0 
0 0 0 0 0 0 0 0 0 
0 0 0 0 0 0 0 0 0 
0 0 0 0 0 0 0 0 0 
0 0 0 0 0 0 0 0 0 
0 0 0 0 0 0 0 0 0 
0 0 0 0 0 0 0 0 0 
0 0 0 0 0 0 0 0 0 
0 0 0 0 0 0 0 0 0 
0 0 0 0 0 0 0 0 0 
0 0 0 0 0 0 0 0 0 
0 0 0 0 0 0 0 0 0 
0 0 0 0 0 0 0 0 0 
0 0 0 0 0 0 0 0 0 
0 0 0 0 0 0 0 0 0 
0 0 0 0 0 0 0 0 0 
0 0 0 0 0 0 0 0 0 
0 0 0 0 0 0 0 0 0 
0 0 0 0 0 0 0 0 0 
0 0 0 0 0 0 0 0 0 
0 0 0 0 0 0 0 0 0 
0 0 0 0 0 0 0 0 0 
0 0 0 0 0 0 0 0 0 
0 0 0 0 0 0 0 0 0 
0 0 0 0 0 0 0 0 0 
0 0 0 0 0 0 0 0 0 
0 0 0 0 0 0 0 0 0 
0 0 0 0 0 0 0 0 0 
0 0 0 0 0 0 0 0 0 
0 0 0 0 0 0 0 0 0 
0 0 0 0 0 0 0 0 0 
0 0 0 0 0 0 0 0 0 
0 0 0 0 0 0 0 0 0 
0 0 0 0 0 0 0 0 0 
0 0 0 0 0 0 0 0 0 
0 0 0 0 0 0 0 0 0 
0 0 0 0 0 0 0 0 0 
0 0 0 0 0 0 0 0 0 
0 0 0 0 0 0 0 0 0 
0 0 0 0 0 0 0 0 0 
0 0 0 0 0 0 0 0 0 
0 0 0 0 0 0 0 0 0 
0 0 0 0 0 0 0 0 0 
0 0 0 0 0 0 0 0 0 
0 0 0 0 0 0 0 0 0 
0 0 0 0 0 0 0 0 0 
0 0 0 0 0 0 0 0 0 
0 0 0 0 0 0 0 0 0 
0 0 0 0 0 0 0 0 0 
0 0 0 0 0 0 0 0 0 
0 0 0 0 0 0 0 0 0 
0 0 0 0 0 0 0 0 0 
0 0 0 0 0 0 0 0 0 
0 0 0 0 0 0 0 0 0 
0 0 0 0 0 0 0 0 0 
0 0 0 0 0 0 0 0 0 
0 0 0 0 0 0 0 0 0 
0 0 0 0 0 0 0 0 0 
0 0 0 0 0 0 0 0 0 
0 0 0 0 0 0 0 0 0 
0 0 0 0 0 0 0 0 0 
0 0 0 0 0 0 0 0 0 
0 0 0 0 0 0 0 0 0 
0 0 0 0 0 0 0 0 0 
0 0 0 0 0 0 0 0 0 
0 0 0 0 0 0 0 0 0 
0 0 0 0 0 0 0 0 0 
0 0 0 0 0 0 0 0 0 
0 0 0 0 0 0 0 0 0 
0 0 0 0 0 0 0 0 0 
0 0 0 0 0 0 0 0 0 
0 0 0 0 0 0 0 0 0 
0 0 0 0 0 0 0 0 0 
0 0 0 0 0 0 0 0 0 
0 0 0 0 0 0 
v 3 890 double
-0.0139895 0.006492 -0.0135358 -0.0212316 0.00572153 0.000570296 -0.0984073 -0.01418 0.00299416 
-0.0463341 -0.0212791 0.0101123 0.0133426 0.0129318 0.00345756 -0.0220131 0.0109397 0.00437186 
-0.0366192 0.0330815 0.0083851 -0.00721725 -0.000713802 -0.0166406 -0.0304373 0.0151367 -0.0185228 
-0.0161705 -0.0205317 -0.0031587 0.0220233 -0.00421538 0.00393551 -0.00395032 0.0176456 0.00691274 
0.00553188 -0.00269258 -0.000637794 -0.0209633 0.00232528 -0.000977613 0.00677728 0.0120739 -0.00105009 
-0.00498892 -0.0275233 0.00219806 -0.0148066 -0.0129133 -0.0123629 0.0313345 -0.00289689 -0.0182693 
0.0304386 -0.0124824 0.00467589 -0.00504144 0.03262 0.00013473 -0.0216933 0.011675 0.000300965 
-0.0270993 0.0568767 -0.00278497 -0.0216293 -0.0217493 -0.0186261 0.0121085 -0.00874523 -0.0110438 
0.0346867 0.0128039 0.0126087 0.0203735 -0.0175273 0.00732463 0.0308777 -0.0401295 -0.00399313 
-0.0128112 0.0124784 -0.00354973 -0.018205 -0.00987055 0.000286812 -0.00994505 0.0133324 -0.00129476 
0.0237943 -0.0247202 -0.040128 0.010546 0.017115 0.00234699 0.0133458 0.0217952 -0.0026274 
-0.0341579 0.0164736 -0.0089218 0.00183381 -0.00152135 -0.0248783 0.00334276 0.0251096 -0.0159886 
-0.048002 -0.0116386 -0.00127165 -0.0247409 -0.0141012 0.0136184 0.00164636 -0.0552472 -0.0100294 
0.00548826 -0.0172676 -0.00973075 -0.00554618 0.00785168 -0.00250531 0.0188581 0.0230955 -0.0105546 
-0.0213618 0.012795 0.00122834 0.0410974 0.0126526 0.0159206 -0.0365733 0.009878 -0.0029094 
-0.0607748 -0.0386984 0.000304871 -0.0207032 -0.0106253 -0.0121315 0.0172147 0.0237259 0.00948725 
0.0120543 -0.0384555 0.00619674 -0.00310046 0.0372389 -0.00455055 0.0402249 -0.0168031 -0.0066478 
-0.00960488 -0.0258641 0.0275909 -0.110481 -0.0195286 0.00998283 -0.00716228 0.00571469 -0.0122224 
0.0157024 0.0148814 -0.00395759 -5.4781e-05 0.00670449 0.00639979 -0.0428345 -0.00039506 0.00255064 
-0.0154586 0.0368088 -0.0139775 5.38319e-06 -0.0307504 8.55976e-05 0.0250571 -0.00215369 0.00237049 
0.00957578 0.013753 -0.00541524 0.0108421 0.00996655 -0.00314653 0.0117013 -0.0186457 0.0144312 
-0.00354695 -0.0197322 0.00210468 0.000253516 -0.0330429 0.00362085 0.0215081 -0.000893709 -0.0117648 
0.02516 -0.013956 -0.00135962 0.00833991 0.0242121 -0.010013 -0.0286891 0.020359 -0.00324592 
-0.0515726 -0.00280973 -0.00434892 -0.0504796 -0.0129354 -0.0181582 0.00557608 -0.00955365 -0.00629847 
0.00778171 0.00418017 0.00104454 0.0352992 -0.00621907 -0.00590972 0.0131757 0.000421925 -0.000371404 
-0.017422 0.0126583 -0.00148449 -0.0123988 -0.0235083 -0.00504523 -0.0289741 0.00273903 0.000833033 
-0.0377667 -0.00843276 -0.0114595 0.00360384 -0.0550993 -0.0159546 0.00449995 -0.00406955 -0.00406403 
-0.00689898 -0.00518523 0.00553211 0.0367784 0.000179098 -0.00673257 0.102112 0.0314968 -0.00232219 
0.00534116 0.00362386 -0.00476399 0.0351925 0.0177696 0.00324037 -0.0204951 0.0122535 -0.00379094 
9.87388e-05 -0.0102207 0.0220142 0.00198771 -0.00204185 -0.00364602 0.0416034 -0.00971705 0.00545515 
-0.00446074 -0.00232214 0.00780814 0.0222364 -0.0373412 -0.00157648 0.0243048 -0.00974462 -0.00899485 
0.0120092 -0.0109142 -0.00545521 0.0124451 0.0255432 -0.0023018 -0.0162968 -0.0209218 0.00422956 
-0.00316084 -0.0128613 -0.00858037 0.0194923 -0.016975 -0.00997045 0.00667976 -0.00548557 -0.00388323 
0.0082429 -0.00436667 0.00795372 0.0196164 -0.0212961 -0.000558042 0.0199289 -0.0108618 -0.0067773 
0.0523076 -0.0246888 -0.0189187 0.0624419 0.0234062 -0.00462822 0.0568465 -0.0292285 0.000320082 
0.0154145 0.000774547 0.018682 0.0315154 -0.0121917 0.000497217 0.0130229 -0.00627687 -0.00505322 
0.0212297 -0.00688258 -0.00719115 0.017835 0.00673372 0.00175992 0.0205007 -0.00298355 -0.000744907 
0.0307502 -0.0134356 -0.00221542 0.0293628 0.0256694 -0.00498602 0.022813 -0.0197209 0.0106017 
0.0278351 -0.00779983 -0.000331614 -0.0375257 -0.0173946 -0.0642505 0.052216 0.00426576 0.00226415 
0.0168121 -0.0165573 -0.0538285 0.00549028 -0.0153066 0.0405221 -0.0328061 0.00655048 0.0219722 
-0.0243331 0.00879778 -0.00546662 0.0441929 0.00783435 0.0140859 -0.034921 0.0198523 0.0195107 
0.0156427 0.0117752 -0.0424325 0.00514433 -0.0329136 0.0237326 0.0201828 0.0152303 -0.0168676 
-0.0230674 -0.0416854 -0.0622882 -0.00289661 -0.0347294 -0.00159666 -0.022543 -0.00178732 -0.00375543 
-0.0147797 0.0242703 0.0118147 0.0102164 -0.0452222 -0.0179872 0.036052 0.00465162 -0.0145899 
-0.0225032 0.0203722 0.00310775 -0.0124595 0.00751975 0.0079193 -0.00939856 0.0270677 0.00364417 
-0.000823485 0.00288525 -0.0301002 -0.0159891 0.00525199 0.0273076 -0.00695839 0.0135408 -0.0126764 
0.0250515 0.0382637 0.011006 -0.00414976 0.0137622 0.0467916 0.0152625 -0.0086305 0.00856423 
0.0245314 0.0223576 -0.00726465 0.0147601 -0.013851 0.00116982 0.0223857 0.0409125 -0.0136318 
-0.0224748 -0.00557806 0.00356314 0.0106086 -0.00727737 -0.0124953 -0.00540095 0.00526286 0.0365318 
0.012883 -0.00948847 -0.0654864 0.020698 -0.00353135 -0.00417414 0.0187425 -0.00301201 0.00328656 
-0.00049138 -0.0161309 -0.000893551 0.00105076 -0.0108596 -0.0128428 -0.0010918 -0.00107599 0.0141232 
-0.0368005 -0.0286419 -0.0180788 -0.0365546 0.00146904 -0.0280803 0.00121822 -0.00538057 0.00352368 
-0.024702 -0.000261436 -0.0206004 0.0157402 0.046144 0.000161093 -0.0015183 0.0119689 -0.00424759 
-0.0252115 0.0290517 0.0101922 -0.00118877 0.0385132 -0.00360387 0.0601175 -0.0448029 -0.0196168 
-0.0186964 0.0173522 -0.0289232 0.0654978 -0.00714754 0.00201927 -0.0229311 0.0122937 0.00492106 
0.016124 0.009057 0.000554945 -0.0207599 0.0430765 0.0031091 0.0372953 -4.01282e-05 0.00517055 
-0.0121068 0.0300955 -0.00628044 0.0233054 0.0210434 -0.0160257 0.0194132 0.0127961 -0.0504225 
0.0138388 0.00920302 -0.0290109 -0.00941151 -0.00752465 -0.0188639 -0.0159204 0.0305773 0.0282886 
-0.0262707 0.0222936 0.0193356 -0.0609735 0.0101784 -0.0438846 -0.0294143 -0.0747744 -0.0533521 
0.0149242 -0.00159652 -0.0237583 0.00109123 -0.0173632 0.0115451 -0.0257421 -0.0329304 -0.0256571 
-0.012924 8.09651e-05 0.0129926 0.00827575 0.0505877 0.0181169 -0.00586216 -0.0227009 0.0131684 
-0.00467652 0.0183114 -0.00812433 0.0134316 0.0305224 0.00801912 -0.0123599 0.0177793 -0.00427586 
-0.0207292 -0.0533464 0.0365953 -0.0087616 -0.0087223 -0.0463555 0.00478434 -0.0139478 -0.0230542 
0.00303589 0.0317703 -0.00276472 0.0532757 0.0129531 -0.0216016 0.0540616 0.0389854 -0.00142019 
-0.0154061 0.0200989 0.0282847 -0.0162022 0.0120448 -0.0336343 -0.00369445 0.0210817 0.00816186 
0.028094 0.0128914 -0.00394428 -0.0130141 0.0112881 0.00184856 0.00223874 -0.0325167 0.00790367 
0.0498901 -0.0208003 0.0186482 -0.0107834 -0.00123646 -0.0167024 -0.0431726 0.0194661 -0.051714 
-0.0168152 0.0109276 -0.0234699 -0.0283699 -0.0160536 -0.000189028 -0.022143 -0.00858487 -0.0196393 
0.00154408 -0.0194507 -0.00413542 0.0101371 -0.0286858 0.00538091 -0.0217846 -0.00408302 -0.0031801 
-0.0300658 0.00705657 0.0135273 -0.0260878 -0.00311249 -0.0012026 -0.0112564 -0.0344993 -0.0164067 
0.00659277 0.0273954 -0.0133012 0.0199512 -0.00416355 -0.00866335 0.00811388 0.0195084 -0.0186003 
-0.0106938 -0.0210778 0.0044703 -0.0263175 -0.00352022 0.0101694 -0.0191619 -0.024633 -0.0093241 
0.000836296 -0.0210151 -0.0107493 -0.00878785 -0.0141877 -0.000548893 0.0229626 -0.00703148 -0.00785332 
0.0283207 0.0482223 -0.0084853 -0.015064 -0.0345526 0.0141314 0.0173998 -0.0436804 -0.0128334 
0.0107383 -4.10459e-05 0.00149163 0.0162082 0.00652258 -0.0131883 0.0348489 0.0141894 -0.0202223 
0.0121285 -0.0355255 0.00428179 0.02324 0.0270502 -0.0140156 -0.000397666 0.0113448 -0.00917171 
0.00645437 -0.0114112 -0.0103108 0.0175646 0.00973202 -0.0044509 0.026436 -0.0274281 0.0169691 
0.0290637 -0.0385202 0.00774744 -0.0275224 0.0446612 -0.0544423 0.0421604 -0.025417 -0.000198932 
-0.00559728 -0.00894979 -0.0138292 -0.00836219 0.00431046 -0.0118956 0.0203261 0.010766 -0.007495 
0.041021 -0.0132365 0.0182038 0.0472126 -0.0199153 0.0184801 0.0123513 -0.000819113 -0.035302 
0.0312575 -0.0172087 0.00264609 0.0172446 0.000937279 0.0212636 0.0330813 -0.00286572 0.000765818 
0.0254716 -0.00384269 -0.0376843 0.0204749 -0.00308635 0.00336282 0.0399582 -0.0110356 0.00394141 
0.0350109 -0.00617943 -0.00480391 0.0156168 -0.00242782 -0.023629 0.0159371 0.00818471 0.0052227 
-0.000776402 0.031908 -0.0166092 -0.0126262 -0.0349683 0.0228438 0.0195691 0.00927901 -0.0438294 
0.0152738 0.014412 -0.000155509 -0.0196759 0.0430165 -0.00797243 0.0529517 -0.0181329 0.010877 
-0.00562235 0.018773 -0.0337525 -0.0234233 -0.0548919 -0.0239918 0.0612938 -0.0270564 -0.0514003 
0.0645971 -0.010862 -0.00407801 0.0361053 -0.0520577 -0.0185616 0.0580505 -0.0510639 0.0352923 
0.0534168 -0.0288134 0.0357336 -0.0147837 -0.009019 0.0104459 0.0323334 -0.007147 -0.0331987 
0.0328169 0.0614058 -0.0412196 0.0308893 0.00391238 -0.0356592 -0.0218098 0.00627171 0.0311871 