# vtk DataFile Version 4.0
Generated by LIGGGHTS
ASCII
DATASET POLYDATA
POINTS 890 float
-0.000614908 -0.0437525 0.00401203 -0.0105687 -0.0378754 0.00387904 0.0053731 -0.0368107 0.00440062 
0.0208314 -0.03705 0.00602773 -0.00262068 -0.0355187 0.0048839 -0.0315104 -0.033035 0.00411516 
-0.019486 -0.0307732 0.00395964 -0.0116993 -0.028674 0.00399061 0.0256977 -0.0307611 0.00630409 
-0.0321361 -0.0221983 0.00422172 -0.0187584 -0.0209445 0.00390435 0.0077724 -0.0236773 0.00397884 
0.0190738 -0.0248784 0.00371555 -0.0408265 -0.0172141 0.00481884 -0.0257397 -0.0173879 0.00402622 
-0.00885004 -0.0197309 0.0040039 0.000161566 -0.0204006 0.00390982 0.0144196 -0.0185152 0.00394263 
0.0319257 -0.0214642 0.00423418 0.0414893 -0.0185767 0.00379362 -0.0341293 -0.0121921 0.00437739 
-0.0133038 -0.0112589 0.00421015 -0.00521269 -0.012814 0.00379326 0.00326895 -0.013028 0.00398422 
-0.0448124 -0.00968097 0.00378361 0.0174614 -0.00811314 0.00385561 0.034669 -0.0111338 0.00417007 
-0.0271074 -0.00222099 0.00396648 -0.0115205 -0.00202527 0.00389463 0.00922278 -0.00378285 0.00377598 
0.0255871 -0.00163315 0.00395751 -0.0201635 0.00241389 0.00396357 0.0026403 0.00399294 0.00382508 
0.0436596 0.00247913 0.00490617 -0.0388373 0.00732789 0.00485036 -0.0287929 0.00556058 0.00395664 
-0.0112703 0.00939331 0.00407705 0.0272776 0.00619644 0.00406 -0.0219922 0.0102584 0.0037848 
-0.00698423 0.0168304 0.00374883 0.0193503 0.0125232 0.00406428 -0.0386847 0.0154076 0.00427126 
-0.0011304 0.0239921 0.00379817 0.00838659 0.0211561 0.00391913 0.0250155 0.0228422 0.00456149 
-0.0311321 0.0297701 0.0040468 0.0114675 0.0286634 0.00392024 0.0261738 0.0364616 0.00410538 
-0.0117529 0.0361817 0.00396893 0.0100709 0.03774 0.00382794 0.0198679 0.0417452 0.00407661 
-0.00922843 -0.0451303 0.00693619 -0.0233865 -0.0379677 0.00433295 -0.00468353 -0.0267496 0.0070819 
0.00293439 -0.0292632 0.00688969 0.011258 -0.0312207 0.00590275 0.0331783 -0.0302723 0.00375774 
0.00632771 -0.0179653 0.00950247 0.0216445 -0.0160618 0.00603948 -0.0258661 -0.00949421 0.00671527 
0.0107289 -0.0117697 0.00606781 -0.0187801 -0.00553694 0.00431322 0.0444548 -0.00974709 0.00434381 
-0.0455733 0.000520728 0.00447887 -0.0348324 0.000489617 0.00484127 -0.0141681 0.00387308 0.00907998 
-0.0059591 0.00352999 0.00661891 0.0105004 0.00447341 0.0060624 0.0187827 0.0041872 0.00475897 
-0.00253554 0.0102026 0.00415623 0.0358061 0.00485464 0.00439824 -0.0304031 0.01507 0.00436593 
-0.0166151 0.01424 0.0079361 0.0115732 0.0136101 0.00496132 0.0269439 0.0144973 0.00400295 
0.0392436 0.0128061 0.00480482 0.00152074 0.0168769 0.00563521 0.01668 0.0208459 0.00383657 
0.0357775 0.0221836 0.00469732 -0.0377727 0.0255528 0.00560168 -0.0232828 0.0239983 0.00475363 
-0.0152461 0.0209089 0.0040939 -0.0131879 0.0287513 0.00673898 -0.00569356 0.0307134 0.00431788 
0.0205412 0.0297021 0.00374516 0.0346363 0.0304092 0.00546373 -0.0229834 0.0321471 0.00406474 
0.00199661 0.0342279 0.00396085 -0.00388886 0.0416949 0.0040605 -0.0167249 -0.0347693 0.0100917 
-0.000503019 -0.041547 0.011671 0.0133256 -0.040698 0.0078659 -0.0273509 -0.0351935 0.0106404 
-0.00823888 -0.0330532 0.0101075 0.0204887 -0.0260889 0.0112598 -0.0379715 -0.0235561 0.00966688 
-0.0251453 -0.0262184 0.00678314 -0.0134814 -0.0218368 0.0100088 0.0140035 -0.0218931 0.0111485 
0.0293159 -0.0256895 0.011036 -0.00941354 -0.0142772 0.0107505 -0.00227664 -0.0178138 0.0111682 
-0.0196174 -0.0144302 0.00823704 0.0293982 -0.014686 0.00889129 0.0377732 -0.0152885 0.0102168 
-0.0390553 -0.00565958 0.00746931 -0.031563 -0.00496856 0.01006 -0.00885061 -0.00630723 0.0100218 
-0.000736407 -0.00987372 0.00998728 0.030538 -0.00650431 0.00904273 -0.0226076 0.000159057 0.0111866 
-0.000440434 -0.0023001 0.00740593 0.0190621 -0.0033691 0.00991825 0.0370296 -0.00265879 0.00647861 
-0.00651584 -4.39858e-05 0.0142955 0.0152393 0.00292955 0.0125346 0.0235813 0.00423938 0.0110795 
-0.0451146 0.0100721 0.00949237 -0.0328763 0.0101544 0.0101191 -0.0244882 0.00873835 0.0109892 
0.00514451 0.0102247 0.00802955 0.0321178 0.0107906 0.00860166 0.0439029 0.00840118 0.011707 
-0.00931402 0.0135372 0.0109368 0.0187694 0.0114539 0.0125142 -0.0400497 0.0180141 0.0116831 
0.0287064 0.017358 0.0116494 0.0391994 0.0200772 0.0123601 -0.00850364 0.0225122 0.00882745 
0.00408788 0.0225328 0.0105856 -0.00189586 0.0276506 0.0107011 0.00597006 0.0311121 0.0103133 
0.0273772 0.0294858 0.00802534 -0.018287 0.0367298 0.00903214 -0.00679049 0.0371816 0.0103185 
0.0066195 0.039781 0.0112112 0.0133777 0.0336923 0.00995952 -0.0146541 0.0435162 0.00661041 
0.00845238 -0.0368466 0.0134774 -0.0218315 -0.0371139 0.0164103 -0.00156857 -0.0292229 0.0139348 
0.0136598 -0.0306051 0.0139144 -0.0292678 -0.0250382 0.0134089 0.00659423 -0.025208 0.0133555 
-0.0203341 -0.0200338 0.014513 -0.0383158 -0.0122307 0.0129486 -0.0305989 -0.0161669 0.0101323 
-0.0156681 -0.012108 0.0151467 0.00697316 -0.0107383 0.0131094 0.0158371 -0.0131544 0.011909 
0.0229655 -0.0156004 0.0143515 0.0327602 -0.0139225 0.0159769 -0.022383 -0.00757253 0.0135289 
0.0101414 -0.00359179 0.0117449 0.0208071 -0.000382306 0.0176567 0.031565 0.00169845 0.0124204 
-0.0386128 0.00197956 0.0135445 -0.0143763 0.00236128 0.0167166 -0.029614 0.0085568 0.019863 
0.000509125 0.00447817 0.0120304 0.025688 0.00889755 0.0172265 0.00470112 0.0154739 0.0142131 
0.0105834 0.00931357 0.0136848 -0.0248206 0.0170656 0.00965887 0.0136831 0.0180845 0.0134866 
-0.0157806 0.0220448 0.0120237 0.0267066 0.0252203 0.0147828 -0.0269325 0.0326125 0.0108522 
0.00547004 0.0317805 0.0190079 0.0176612 0.0245653 0.0107529 0.0207573 0.0340378 0.0126718 
-0.0121033 -0.0402424 0.0140071 0.0198967 -0.0340166 0.0197651 -0.0161194 -0.0267327 0.015638 
0.00520354 -0.0311123 0.0184934 -0.007216 -0.023764 0.014121 0.0360457 -0.0212492 0.0152258 
-0.0346892 -0.0191029 0.0161269 0.0103192 -0.0171439 0.0164988 0.00135026 -0.0143387 0.0180064 
-0.0118063 -0.00535584 0.017503 -0.00538156 -0.00995541 0.0163625 0.00247737 -0.00388439 0.0145749 
0.0271145 -0.00591782 0.0164663 0.040869 -0.00886386 0.0169233 -0.0285781 -0.00356 0.0173978 
0.0131941 0.0048722 0.0199882 0.0323722 0.00165945 0.0202274 -0.0401153 0.010709 0.0158005 
-0.0112592 0.00946053 0.0176467 -0.00294625 0.0110634 0.0153637 0.0361613 0.0120789 0.0152007 
-0.0188115 0.0153546 0.0154389 0.00166794 0.0227115 0.0183674 -0.0340236 0.0232039 0.0166033 
-0.00673807 0.0186172 0.0173303 0.00967501 0.0252716 0.0162441 -0.0214034 0.0277666 0.0138081 
-0.0108958 0.0278165 0.0149548 0.0203943 0.0257187 0.0194334 0.0289996 0.0331686 0.0165265 
-0.0163035 0.0336095 0.0160018 -0.00353323 0.0317866 0.0172595 -0.00287667 0.0420824 0.0159431 
-0.00148793 -0.0362444 0.0178753 0.00659637 -0.0386317 0.0212902 -0.0115677 -0.0328706 0.0182856 
0.0233418 -0.0263738 0.0186568 -0.0216468 -0.0234648 0.0224625 0.000673357 -0.0228828 0.0196587 
0.0125691 -0.0237566 0.0220892 -0.0162695 -0.0161463 0.0217959 -0.00605831 -0.0170489 0.0201368 
0.0278591 -0.015979 0.0217356 0.0164452 -0.00994737 0.0191192 -0.0396447 -0.00867705 0.0197756 
0.0322723 -0.00876654 0.0223623 -0.020064 -0.00480831 0.0205177 -0.0349659 0.00231652 0.0224231 
0.00344099 0.00241989 0.0196048 0.0398999 0.00204809 0.0168351 -0.0213542 0.00482434 0.0192372 
0.00696497 0.00968447 0.0211822 -0.0394968 0.013444 0.0234232 -0.0262659 0.01924 0.0171294 
-0.000371294 0.0152463 0.021872 0.0210582 0.016656 0.0188825 0.0267974 0.0213575 0.0217764 
-0.0227355 0.0310302 0.020967 -0.00981129 0.0373606 0.0184459 0.0128044 0.0355291 0.0179517 
-0.00183045 -0.0407468 0.0248768 -0.0137696 -0.036468 0.0260299 0.0162392 -0.0367938 0.0276838 
-0.0293051 -0.0250919 0.0239319 -0.00336465 -0.0296566 0.0243481 -0.0100954 -0.0233968 0.0228721 
-0.0351063 -0.0157988 0.0233436 0.0348494 -0.0193926 0.0231903 -0.0246195 -0.0128303 0.0216176 
-0.00076633 -0.0117382 0.025119 -0.0142311 -0.00840205 0.0243692 0.0397807 -0.00990442 0.0249185 
-0.030041 -0.00271288 0.0261788 0.00780717 -0.00495986 0.0212345 0.017209 -0.00362611 0.0239718 
0.0316172 -0.00255266 0.0274936 0.0230505 0.00426741 0.0238684 -0.0222302 0.0145517 0.0223495 
-0.00598081 0.0105642 0.0253654 0.0265772 0.0126365 0.024285 0.0346204 0.0143661 0.0240003 
0.0146664 0.0189715 0.0249301 -0.0296518 0.0203692 0.0241447 -0.0185107 0.0237936 0.0225002 
-0.0106633 0.0246953 0.0229883 0.00231411 0.0280094 0.0250677 0.0105926 0.0257868 0.024517 
0.0266434 0.0311572 0.0245392 -0.0177548 0.0354377 0.0255875 0.00448124 0.0391742 0.0212173 
-0.00740253 -0.0343955 0.0309379 -0.0191539 -0.0295115 0.0270381 0.00253667 -0.0261115 0.0297756 
0.0130632 -0.0284511 0.0283524 -0.0351036 -0.0205355 0.0305482 0.0246151 -0.0243926 0.0282927 
-0.0178236 -0.0197255 0.0289221 -0.00699992 -0.0176079 0.028752 0.00776905 -0.0155035 0.0264365 
0.0162193 -0.0116317 0.030583 0.0255248 -0.0137133 0.0290188 -0.0394229 -0.00112012 0.0286292 
-0.00593349 -0.00409208 0.0291183 0.0243593 -0.00376001 0.0309891 -0.0115825 0.00350108 0.0261139 
0.00453433 0.00443515 0.0271686 0.0127284 0.00328026 0.0278949 -0.0259691 0.00773659 0.028902 
-0.0184688 0.00524158 0.030568 0.0399053 0.00867933 0.0275506 -0.0328015 0.0116284 0.0281361 
-0.0132365 0.0140182 0.0274916 0.0205475 0.0111319 0.0295847 -0.0353091 0.0198444 0.0305632 
-0.0202887 0.0178417 0.0300879 0.0037442 0.0187733 0.0278111 -0.00882159 0.0203272 0.0298143 
-0.0280206 0.0282943 0.0264845 -0.0124912 0.0298634 0.0296314 -0.00458825 0.0274093 0.0287049 
0.0205605 0.0293244 0.0300439 0.028956 0.0246467 0.0302052 -0.00110627 0.0369693 0.0277508 
0.0100051 0.0357591 0.0278214 0.000447699 -0.0355199 0.0334577 -0.0248865 -0.0323875 0.0317619 
-0.0170521 -0.034058 0.0332709 0.0221152 -0.0325943 0.0319132 -0.0042587 -0.0259078 0.034505 
-0.0275417 -0.0233321 0.0332076 0.0147997 -0.0216185 0.0335633 0.0315821 -0.020328 0.0335273 
0.00509682 -0.0177095 0.0339469 -0.0336188 -0.0108284 0.0325396 -0.0255383 -0.0120707 0.034991 
0.0381797 -0.0145662 0.0326285 0.00148293 -0.00635714 0.0311333 -0.0332808 -0.000878907 0.0355173 
[...]
POINT_DATA 890
FIELD FieldData 9
id 1 890 int
328 395 800 347 236 582 256 806 677 
177 810 153 449 627 471 477 860 602 
388 169 351 755 39 634 740 249 671 
731 62 119 134 702 506 873 307 654 
473 738 657 787 274 2 432 278 531 
662 408 706 89 416 546 635 203 739 
603 586 396 521 28 190 145 876 46 
329 189 82 199 319 483 197 538 10 
575 534 450 174 426 14 858 138 418 
180 462 35 298 430 53 641 859 596 
650 139 713 398 284 97 871 630 692 
206 90 611 666 102 884 275 323 11 
333 120 520 830 176 385 659 827 570 
675 175 708 159 327 461 317 195 508 
390 672 224 478 41 469 842 4 349 
733 38 742 179 608 883 162 598 52 
86 192 874 759 696 779 216 341 411 
265 259 833 401 250 50 482 809 816 
228 276 118 116 440 222 258 724 737 
231 17 699 613 85 532 523 198 413 
563 33 625 879 257 682 350 217 849 
227 698 140 804 150 836 594 767 869 
795 405 326 680 623 242 101 37 196 
65 111 66 544 142 664 200 553 230 
862 348 422 530 244 295 363 632 67 
854 689 503 726 338 207 886 851 409 
794 80 571 113 601 622 55 636 676 
599 105 366 44 679 653 96 460 229 
316 16 19 123 314 501 289 420 687 
467 309 358 218 499 429 59 393 649 
515 667 141 588 606 182 367 514 383 
797 821 262 313 765 796 273 47 715 
751 364 7 399 748 519 365 376 776 
337 167 780 184 221 799 888 76 488 
386 855 498 253 239 568 121 375 541 
766 64 171 574 269 642 725 707 652 
690 743 149 618 673 824 268 310 651 
576 354 535 252 464 322 628 645 18 
694 558 378 77 431 455 771 438 791 
489 266 42 125 881 722 778 526 110 
320 404 782 474 103 370 848 758 674 
414 215 21 246 875 5 749 87 619 
331 808 281 29 468 136 844 446 166 
597 377 545 419 392 880 56 504 126 
640 318 108 70 343 801 557 339 94 
811 695 251 397 104 308 92 609 423 
63 114 254 73 727 802 812 290 721 
243 612 803 291 451 240 237 668 729 
406 720 127 585 847 510 311 22 746 
660 578 547 770 360 444 723 382 669 
864 688 271 424 701 336 700 373 517 
205 445 457 736 30 223 99 465 132 
12 505 456 655 161 129 380 219 572 
122 34 334 248 775 747 638 226 528 
435 486 744 344 417 332 286 637 829 
479 448 292 882 850 107 522 761 793 
428 381 798 870 600 837 187 495 75 
845 280 71 878 297 840 480 133 407 
550 374 728 3 188 529 315 788 463 
25 68 838 115 537 648 579 72 615 
705 128 492 421 362 208 91 458 670 
466 154 36 785 160 490 507 57 164 
345 605 452 368 817 647 212 857 88 
285 626 58 210 610 124 559 454 867 
604 584 491 193 772 43 369 260 263 
683 581 562 475 306 681 481 288 470 
209 711 106 233 714 820 148 518 513 
580 691 819 389 616 26 84 757 173 
146 856 745 157 589 552 439 852 402 
885 8 9 305 1 186 357 264 561 
112 494 784 774 734 524 484 294 556 
352 735 403 573 45 238 493 629 853 
277 225 644 789 877 686 335 442 15 
863 633 502 6 69 54 865 61 663 
321 245 684 211 567 697 202 312 433 
527 346 220 213 178 441 807 459 300 
773 23 384 754 718 303 768 781 425 
509 516 282 685 191 777 656 100 437 
496 591 412 340 704 78 815 359 826 
643 83 583 40 843 555 716 400 756 
272 658 261 443 790 764 325 147 361 
283 117 135 301 709 24 717 394 577 
621 551 165 299 201 20 324 436 805 
565 476 753 356 887 569 304 98 415 
13 678 665 342 485 27 511 831 170 
750 614 51 763 214 814 137 590 247 
752 60 168 270 109 693 835 172 631 
769 95 330 533 185 434 732 593 646 
554 131 543 287 453 786 371 158 93 
130 81 234 834 512 156 487 566 181 
564 536 143 500 241 255 391 890 548 
355 302 822 279 49 818 839 741 379 
889 48 813 155 31 832 296 703 712 
539 661 560 151 868 447 620 617 823 
163 841 372 204 730 79 861 144 825 
410 194 710 32 267 183 762 472 427 
587 719 353 866 639 235 232 542 828 
595 783 592 74 540 607 549 760 293 
624 497 872 152 387 792 525 846 
type 1 890 int
1 1 1 1 1 1 1 1 1 
1 1 1 1 1 1 1 1 1 
1 1 1 1 1 1 1 1 1 
1 1 1 1 1 1 1 1 1 
1 1 1 1 1 1 1 1 1 
1 1 1 1 1 1 1 1 1 
1 1 1 1 1 1 1 1 1 
1 1 1 1 1 1 1 1 1 
1 1 1 1 1 1 1 1 1 
1 1 1 1 1 1 1 1 1 
1 1 1 1 1 1 1 1 1 
1 1 1 1 1 1 1 1 1 
1 1 1 1 1 1 1 1 1 
1 1 1 1 1 1 1 1 1 
1 1 1 1 1 1 1 1 1 
1 1 1 1 1 1 1 1 1 
1 1 1 1 1 1 1 1 1 
1 1 1 1 1 1 1 1 1 
1 1 1 1 1 1 1 1 1 
1 1 1 1 1 1 1 1 1 
1 1 1 1 1 1 1 1 1 
1 1 1 1 1 1 1 1 1 
1 1 1 1 1 1 1 1 1 
1 1 1 1 1 1 1 1 1 
1 1 1 1 1 1 1 1 1 
1 1 1 1 1 1 1 1 1 
1 1 1 1 1 1 1 1 1 
1 1 1 1 1 1 1 1 1 
1 1 1 1 1 1 1 1 1 
1 1 1 1 1 1 1 1 1 
1 1 1 1 1 1 1 1 1 
1 1 1 1 1 1 1 1 1 
1 1 1 1 1 1 1 1 1 
1 1 1 1 1 1 1 1 1 
1 1 1 1 1 1 1 1 1 
1 1 1 1 1 1 1 1 1 
1 1 1 1 1 1 1 1 1 
1 1 1 1 1 1 1 1 1 
1 1 1 1 1 1 1 1 1 
1 1 1 1 1 1 1 1 1 
1 1 1 1 1 1 1 1 1 
1 1 1 1 1 1 1 1 1 
1 1 1 1 1 1 1 1 1 
1 1 1 1 1 1 1 1 1 
1 1 1 1 1 1 1 1 1 
1 1 1 1 1 1 1 1 1 
1 1 1 1 1 1 1 1 1 
1 1 1 1 1 1 1 1 1 
1 1 1 1 1 1 1 1 1 
1 1 1 1 1 1 1 1 1 
1 1 1 1 1 1 1 1 1 
1 1 1 1 1 1 1 1 1 
1 1 1 1 1 1 1 1 1 
1 1 1 1 1 1 1 1 1 
1 1 1 1 1 1 1 1 1 
1 1 1 1 1 1 1 1 1 
1 1 1 1 1 1 1 1 1 
1 1 1 1 1 1 1 1 1 
1 1 1 1 1 1 1 1 1 
1 1 1 1 1 1 1 1 1 
1 1 1 1 1 1 1 1 1 
1 1 1 1 1 1 1 1 1 
1 1 1 1 1 1 1 1 1 
1 1 1 1 1 1 1 1 1 
1 1 1 1 1 1 1 1 1 
1 1 1 1 1 1 1 1 1 
1 1 1 1 1 1 1 1 1 
1 1 1 1 1 1 1 1 1 
1 1 1 1 1 1 1 1 1 
1 1 1 1 1 1 1 1 1 
1 1 1 1 1 1 1 1 1 
1 1 1 1 1 1 1 1 1 
1 1 1 1 1 1 1 1 1 
1 1 1 1 1 1 1 1 1 
1 1 1 1 1 1 1 1 1 
1 1 1 1 1 1 1 1 1 
1 1 1 1 1 1 1 1 1 
1 1 1 1 1 1 1 1 1 
1 1 1 1 1 1 1 1 1 
1 1 1 1 1 1 1 1 1 
1 1 1 1 1 1 1 1 1 
1 1 1 1 1 1 1 1 1 
1 1 1 1 1 1 1 1 1 
1 1 1 1 1 1 1 1 1 
1 1 1 1 1 1 1 1 1 
1 1 1 1 1 1 1 1 1 
1 1 1 1 1 1 1 1 1 
1 1 1 1 1 1 1 1 1 
1 1 1 1 1 1 1 1 1 
1 1 1 1 1 1 1 1 1 
1 1 1 1 1 1 1 1 1 
1 1 1 1 1 1 1 1 1 
1 1 1 1 1 1 1 1 1 
1 1 1 1 1 1 1 1 1 
1 1 1 1 1 1 1 1 1 
1 1 1 1 1 1 1 1 1 
1 1 1 1 1 1 1 1 1 
1 1 1 1 1 1 1 1 1 
1 1 1 1 1 1 1 1 
i 3 890 int
0 0 0 0 0 0 0 0 0 
0 0 0 0 0 0 0 0 0 
0 0 0 0 0 0 0 0 0 
0 0 0 0 0 0 0 0 0 
0 0 0 0 0 0 0 0 0 
0 0 0 0 0 0 0 0 0 
0 0 0 0 0 0 0 0 0 
0 0 0 0 0 0 0 0 0 
0 0 0 0 0 0 0 0 0 
0 0 0 0 0 0 0 0 0 
0 0 0 0 0 0 0 0 0 
0 0 0 0 0 0 0 0 0 
0 0 0 0 0 0 0 0 0 
0 0 0 0 0 0 0 0 0 
0 0 0 0 0 0 0 0 0 
0 0 0 0 0 0 0 0 0 
0 0 0 0 0 0 0 0 0 
0 0 0 0 0 0 0 0 0 
0 0 0 0 0 0 0 0 0 
0 0 0 0 0 0 0 0 0 
0 0 0 0 0 0 0 0 0 
0 0 0 0 0 0 0 0 0 
0 0 0 0 0 0 0 0 0 
0 0 0 0 0 0 0 0 0 
0 0 0 0 0 0 0 0 0 
0 0 0 0 0 0 0 0 0 
0 0 0 0 0 0 0 0 0 
0 0 0 0 0 0 0 0 0 
0 0 0 0 0 0 0 0 0 
0 0 0 0 0 0 0 0 0 
0 0 0 0 0 0 0 0 0 
0 0 0 0 0 0 0 0 0 
0 0 0 0 0 0 0 0 0 
0 0 0 0 0 0 0 0 0 
0 0 0 0 0 0 0 0 0 
0 0 0 0 0 0 0 0 0 
0 0 0 0 0 0 0 0 0 
0 0 0 0 0 0 0 0 0 
0 0 0 0 0 0 0 0 0 
0 0 0 0 0 0 0 0 0 
0 0 0 0 0 0 0 0 0 
0 0 0 0 0 0 0 0 0 
0 0 0 0 0 0 0 0 0 
0 0 0 0 0 0 0 0 0 
0 0 0 0 0 0 0 0 0 
0 0 0 0 0 0 0 0 0 
0 0 0 0 0 0 0 0 0 
0 0 0 0 0 0 0 0 0 
0 0 0 0 0 0 0 0 0 
0 0 0 0 0 0 0 0 0 
0 0 0 0 0 0 0 0 0 
0 0 0 0 0 0 0 0 0 
0 0 0 0 0 0 0 0 0 
0 0 0 0 0 0 0 0 0 
0 0 0 0 0 0 0 0 0 
0 0 0 0 0 0 0 0 0 
0 0 0 0 0 0 0 0 0 
0 0 0 0 0 0 0 0 0 
0 0 0 0 0 0 0 0 0 
0 0 0 0 0 0 0 0 0 
0 0 0 0 0 0 0 0 0 
0 0 0 0 0 0 0 0 0 
0 0 0 0 0 0 0 0 0 
0 0 0 0 0 0 0 0 0 
0 0 0 0 0 0 0 0 0 
0 0 0 0 0 0 0 0 0 
0 0 0 0 0 0 0 0 0 
0 0 0 0 0 0 0 0 0 
0 0 0 0 0 0 0 0 0 
0 0 0 0 0 0 0 0 0 
0 0 0 0 0 0 0 0 0 
0 0 0 0 0 0 0 0 0 
0 0 0 0 0 0 0 0 0 
0 0 0 0 0 0 0 0 0 
0 0 0 0 0 0 0 0 0 
0 0 0 0 0 0 0 0 0 
0 0 0 0 0 0 0 0 0 
0 0 0 0 0 0 0 0 0 
0 0 0 0 0 0 0 0 0 
0 0 0 0 0 0 0 0 0 
0 0 0 0 0 0 0 0 0 
0 0 0 0 0 0 0 0 0 
0 0 0 0 0 0 0 0 0 
0 0 0 0 0 0 0 0 0 
0 0 0 0 0 0 0 0 0 
0 0 0 0 0 0 0 0 0 
0 0 0 0 0 0 0 0 0 
0 0 0 0 0 0 0 0 0 
0 0 0 0 0 0 0 0 0 
0 0 0 0 0 0 0 0 0 
0 0 0 0 0 0 0 0 0 
0 0 0 0 0 0 0 0 0 
0 0 0 0 0 0 0 0 0 
0 0 0 0 0 0 0 0 0 
0 0 0 0 0 0 0 0 0 
0 0 0 0 0 0 0 0 0 
0 0 0 0 0 0 0 0 0 
0 0 0 0 0 0 0 0 0 
0 0 0 0 0 0 0 0 0 
0 0 0 0 0 0 0 0 0 
0 0 0 0 0 0 0 0 0 
0 0 0 0 0 0 0 0 0 
0 0 0 0 0 0 0 0 0 
0 0 0 0 0 0 0 0 0 
0 0 0 0 0 0 0 0 0 
0 0 0 0 0 0 0 0 0 
0 0 0 0 0 0 0 0 0 
0 0 0 0 0 0 0 0 0 
0 0 0 0 0 0 0 0 0 
0 0 0 0 0 0 0 0 0 
0 0 0 0 0 0 0 0 0 
0 0 0 0 0 0 0 0 0 
0 0 0 0 0 0 0 0 0 
0 0 0 0 0 0 0 0 0 
0 0 0 0 0 0 0 0 0 
0 0 0 0 0 0 0 0 0 
0 0 0 0 0 0 0 0 0 
0 0 0 0 0 0 0 0 0 
0 0 0 0 0 0 0 0 0 
0 0 0 0 0 0 0 0 0 
0 0 0 0 0 0 0 0 0 
0 0 0 0 0 0 0 0 0 
0 0 0 0 0 0 0 0 0 
0 0 0 0 0 0 0 0 0 
0 0 0 0 0 0 0 0 0 
0 0 0 0 0 0 0 0 0 
0 0 0 0 0 0 0 0 0 
0 0 0 0 0 0 0 0 0 
0 0 0 0 0 0 0 0 0 
0 0 0 0 0 0 0 0 0 
0 0 0 0 0 0 0 0 0 
0 0 0 0 0 0 0 0 0 
0 0 0 0 0 0 0 0 0 
0 0 0 0 0 0 0 0 0 
0 0 0 0 0 0 0 0 0 
0 0 0 0 0 0 0 0 0 
0 0 0 0 0 0 0 0 0 
0 0 0 0 0 0 0 0 0 
0 0 0 0 0 0 0 0 0 
0 0 0 0 0 0 0 0 0 
0 0 0 0 0 0 0 0 0 
0 0 0 0 0 0 0 0 0 
0 0 0 0 0 0 0 0 0 
0 0 0 0 0 0 0 0 0 
0 0 0 0 0 0 0 0 0 
0 0 0 0 0 0 0 0 0 
0 0 0 0 0 0 0 0 0 
0 0 0 0 0 0 0 0 0 
0 0 0 0 0 0 0 0 0 
0 0 0 0 0 0 0 0 0 
0 0 0 0 0 0 0 0 0 
0 0 0 0 0 0 0 0 0 
0 0 0 0 0 0 0 0 0 
0 0 0 0 0 0 0 0 0 
0 0 0 0 0 0 0 0 0 
0 0 0 0 0 0 0 0 0 
0 0 0 0 0 0 0 0 0 
0 0 0 0 0 0 0 0 0 
0 0 0 0 0 0 0 0 0 
0 0 0 0 0 0 0 0 0 
0 0 0 0 0 0 0 0 0 
0 0 0 0 0 0 0 0 0 
0 0 0 0 0 0 0 0 0 
0 0 0 0 0 0 0 0 0 
0 0 0 0 0 0 0 0 0 
0 0 0 0 0 0 0 0 0 
0 0 0 0 0 0 0 0 0 
0 0 0 0 0 0 0 0 0 
0 0 0 0 0 0 0 0 0 
0 0 0 0 0 0 0 0 0 
0 0 0 0 0 0 0 0 0 
0 0 0 0 0 0 0 0 0 
0 0 0 0 0 0 0 0 0 
0 0 0 0 0 0 0 0 0 
0 0 0 0 0 0 0 0 0 
0 0 0 0 0 0 0 0 0 
0 0 0 0 0 0 0 0 0 
0 0 0 0 0 0 0 0 0 
0 0 0 0 0 0 0 0 0 
0 0 0 0 0 0 0 0 0 
0 0 0 0 0 0 0 0 0 
0 0 0 0 0 0 0 0 0 
0 0 0 0 0 0 0 0 0 
0 0 0 0 0 0 0 0 0 
0 0 0 0 0 0 0 0 0 
0 0 0 0 0 0 0 0 0 
0 0 0 0 0 0 0 0 0 
0 0 0 0 0 0 0 0 0 
0 0 0 0 0 0 0 0 0 
0 0 0 0 0 0 0 0 0 
0 0 0 0 0 0 0 0 0 
0 0 0 0 0 0 0 0 0 
0 0 0 0 0 0 0 0 0 
0 0 0 0 0 0 0 0 0 
0 0 0 0 0 0 0 0 0 
0 0 0 0 0 0 0 0 0 
0 0 0 0 0 0 0 0 0 
0 0 0 0 0 0 0 0 0 
0 0 0 0 0 0 0 0 0 
0 0 0 0 0 0 0 0 0 
0 0 0 0 0 0 0 0 0 
0 0 0 0 0 0 0 0 0 
0 0 0 0 0 0 0 0 0 
0 0 0 0 0 0 0 0 0 
0 0 0 0 0 0 0 0 0 
0 0 0 0 0 0 0 0 0 
0 0 0 0 0 0 0 0 0 
0 0 0 0 0 0 0 0 0 
0 0 0 0 0 0 0 0 0 
0 0 0 0 0 0 0 0 0 
0 0 0 0 0 0 0 0 0 
0 0 0 0 0 0 0 0 0 
0 0 0 0 0 0 0 0 0 
0 0 0 0 0 0 0 0 0 
0 0 0 0 0 0 0 0 0 
0 0 0 0 0 0 0 0 0 
0 0 0 0 0 0 0 0 0 
0 0 0 0 0 0 0 0 0 
0 0 0 0 0 0 0 0 0 
0 0 0 0 0 0 0 0 0 
0 0 0 0 0 0 0 0 0 
0 0 0 0 0 0 0 0 0 
0 0 0 0 0 0 0 0 0 
0 0 0 0 0 0 0 0 0 
0 0 0 0 0 0 0 0 0 
0 0 0 0 0 0 0 0 0 
0 0 0 0 0 0 0 0 0 
0 0 0 0 0 0 0 0 0 
0 0 0 0 0 0 0 0 0 
0 0 0 0 0 0 0 0 0 
0 0 0 0 0 0 0 0 0 
0 0 0 0 0 0 0 0 0 
0 0 0 0 0 0 0 0 0 
0 0 0 0 0 0 0 0 0 
0 0 0 0 0 0 0 0 0 
0 0 0 0 0 0 0 0 0 
0 0 0 0 0 0 0 0 0 
0 0 0 0 0 0 0 0 0 
0 0 0 0 0 0 0 0 0 
0 0 0 0 0 0 0 0 0 
0 0 0 0 0 0 0 0 0 
0 0 0 0 0 0 0 0 0 
0 0 0 0 0 0 0 0 0 
0 0 0 0 0 0 0 0 0 
0 0 0 0 0 0 0 0 0 
0 0 0 0 0 0 0 0 0 
0 0 0 0 0 0 0 0 0 
0 0 0 0 0 0 0 0 0 
0 0 0 0 0 0 0 0 0 
0 0 0 0 0 0 0 0 0 
0 0 0 0 0 0 0 0 0 
0 0 0 0 0 0 0 0 0 
0 0 0 0 0 0 0 0 0 
0 0 0 0 0 0 0 0 0 
0 0 0 0 0 0 0 0 0 
0 0 0 0 0 0 0 0 0 
0 0 0 0 0 0 0 0 0 
0 0 0 0 0 0 0 0 0 
0 0 0 0 0 0 0 0 0 
0 0 0 0 0 0 0 0 0 
0 0 0 0 0 0 0 0 0 
0 0 0 0 0 0 0 0 0 
0 0 0 0 0 0 0 0 0 
0 0 0 0 0 0 0 0 0 
0 0 0 0 0 0 0 0 0 
0 0 0 0 0 0 0 0 0 
0 0 0 0 0 0 0 0 0 
0 0 0 0 0 0 0 0 0 
0 0 0 0 0 0 0 0 0 
0 0 0 0 0 0 0 0 0 
0 0 0 0 0 0 0 0 0 
0 0 0 0 0 0 0 0 0 
0 0 0 0 0 0 0 0 0 
0 0 0 0 0 0 0 0 0 
0 0 0 0 0 0 0 0 0 
0 0 0 0 0 0 0 0 0 
0 0 0 0 0 0 0 0 0 
0 0 0 0 0 0 0 0 0 
0 0 0 0 0 0 0 0 0 
0 0 0 0 0 0 0 0 0 
0 0 0 0 0 0 0 0 0 
0 0 0 0 0 0 0 0 0 
0 0 0 0 0 0 0 0 0 
0 0 0 0 0 0 0 0 0 
0 0 0 0 0 0 0 0 0 
0 0 0 0 0 0 0 0 0 
0 0 0 0 0 0 0 0 0 
0 0 0 0 0 0 0 0 0 
0 0 0 0 0 0 0 0 0 
0 0 0 0 0 0 0 0 0 
0 0 0 0 0 0 0 0 0 
0 0 0 0 0 0 0 0 0 
0 0 0 0 0 0 0 0 0 
0 0 0 0 0 0 0 0 0 
0 0 0 0 0 0 0 0 0 
0 0 0 0 0 0 0 0 0 
0 0 0 0 0 0 
v 3 890 double
0.041102 -0.191022 -0.0079505 -0.0109641 0.2143 -0.175502 -0.0574322 -0.325503 0.0134829 
0.142901 -0.212233 0.0327577 0.0783487 -0.32866 0.0225108 -0.230149 -0.217661 -0.0214913 
-0.0827463 -0.153086 0.0809325 -0.203029 -0.161077 0.0181707 -0.0733087 -0.022784 0.060672 
-0.0702673 -0.0688116 0.259849 -0.0415788 -0.105208 0.0668399 0.0141441 -0.0345338 0.0570558 
-0.115826 -0.00400261 0.153551 -0.071547 -0.179291 0.0239572 -0.0224757 -0.00991679 -0.366711 
0.149515 -0.121696 -0.203759 0.124259 -0.120122 0.0404044 0.179923 -0.0614672 -0.00927615 
0.293219 -0.374582 -0.0864929 -0.0383614 -0.145998 0.0571075 -0.202755 -0.115712 -0.0631927 
0.102211 0.0422062 0.0201669 0.0746396 0.0180865 0.117516 -0.235794 -0.155532 -0.0100972 
0.0846906 0.0585158 -0.119184 0.200857 -0.0212278 -0.0491309 0.236984 -0.0965194 0.105154 
0.0203781 0.0839191 -0.0861591 -0.0671331 0.194222 0.0733384 -0.0750965 0.0607064 0.0276828 
0.150599 -0.101238 0.00362015 0.0358567 0.106595 0.126061 -0.101446 -0.022682 -0.0164692 
0.126736 0.125376 0.00832791 -0.204382 -0.0912384 -0.0914105 -0.229172 0.0851847 -0.00272036 
0.272235 0.0517718 0.0900095 0.0242597 -0.051354 0.113852 0.018993 0.100791 0.0415538 
0.113213 -0.0853376 0.156883 0.10648 0.0161687 -0.0236745 -0.195533 0.207695 0.0149674 
0.0518743 0.25259 0.021032 0.179767 0.0264602 -0.0944677 0.18657 0.0184537 0.0663328 
-0.135964 0.138637 -0.252078 0.0784758 0.199579 -0.0357157 0.0672069 0.415517 -0.0310607 
-0.315033 0.124074 0.11419 -0.153078 0.257093 0.157616 0.0726346 0.1362 0.0226496 
0.179885 0.0882837 0.0195086 0.127079 0.290933 0.102392 0.132387 -0.0496073 -0.203517 
0.118008 -0.152179 -0.404737 0.141148 -0.0320731 -0.324707 0.163077 0.0419218 0.142068 
0.0724473 0.0311253 -0.00936215 0.273801 0.0186736 -0.27964 -0.16786 -0.161997 -0.324966 
0.0997019 0.00170466 -0.283654 -0.056303 -0.0969786 -0.172978 0.181647 -0.167979 -0.336248 
-0.334564 0.0922545 0.28855 -0.116461 0.121683 -0.257077 -0.136502 0.126339 -0.0468888 
-0.166244 0.0123824 -0.0272577 -0.0263023 0.286484 -0.149851 -0.0421273 0.102551 -0.130438 
-0.179102 0.0430564 -0.00459151 0.182717 -0.00108904 0.249227 -0.375372 -0.026236 -0.0723097 
0.119247 0.160803 -0.121268 0.0545457 -0.0383499 0.0383102 0.0836079 0.149537 -0.217826 
0.0990839 0.0182167 0.148899 0.0758819 0.0956157 -0.460406 0.0712095 0.226276 0.249576 
-0.00784517 0.200601 0.14243 -0.347265 0.110677 -0.294252 -0.0183264 0.0088522 0.244729 
0.0369426 -0.0168564 0.0814522 -0.0371848 0.00729681 -0.228461 0.137147 0.214408 -0.0561508 
0.199619 0.162619 -0.171897 0.104367 -0.15836 0.0302101 -0.191958 -0.0851074 -0.314424 
-0.117434 0.263175 0.0669378 -0.00519524 0.188521 0.224998 -0.0778273 -0.0899389 0.181482 
-0.0739495 -0.120173 -0.072237 0.214504 -0.200423 -0.210087 -0.268765 -0.321563 0.0319915 
-0.170142 0.0922456 -0.0517057 -0.0255627 -0.153703 0.224525 -0.398566 -0.227014 -0.346979 
-0.201469 -0.110519 -0.222047 -0.179504 0.0874562 -0.0243261 0.181525 -0.320295 -0.121872 
0.150835 -0.219747 0.0513439 0.100144 0.101267 0.0557883 -0.12368 -0.192385 0.00261644 
0.15728 0.115724 -0.25717 0.0449302 0.0960493 -0.328823 0.113029 -0.0815781 0.0206913 
-0.106768 0.230281 -0.142436 -0.0150411 0.213461 -0.267712 -0.125723 0.015713 -0.0284344 
-0.154356 -0.0624229 -0.0569848 0.0890396 0.197259 -0.18028 -0.189678 0.12692 0.0337405 
-0.215132 -0.192598 -0.312595 0.258371 -0.17032 -0.0702783 0.131187 -0.186703 -0.415575 
0.00202228 -0.115984 -0.0808289 -0.00687703 -0.0280955 -0.376522 0.186764 -0.205546 0.0128425 
-0.103135 0.124216 -0.360292 0.167803 0.158497 -0.314572 -0.304631 -0.0560543 -0.0255685 
-0.163505 0.106273 -0.143763 0.210503 0.0746568 -0.420236 0.23897 -0.0661757 -0.122494 
-0.0396062 -0.0118982 -0.103728 0.0247234 0.0948974 0.0373535 -0.413002 0.0989813 -0.0461481 
0.187994 -0.0873141 0.109652 0.263511 0.123475 0.0300577 -0.112853 0.409214 -0.206548 
0.101147 0.0848385 -0.186581 -0.0444922 0.0672945 0.0229416 -0.0954595 -0.0419723 0.11959 
-0.155752 0.0010464 -0.225425 -0.197029 0.201748 -0.248513 0.178438 0.0948385 0.118577 
0.183652 0.051556 -0.0263244 0.115977 -0.395967 -0.178445 0.148315 0.0350325 -0.370145 
-0.00774552 -0.223431 -0.560778 -0.098078 -0.163743 -0.145182 0.160144 0.0529944 -0.15231 
0.103598 0.14975 -0.280269 -0.231321 -0.0587568 -0.204194 0.0623198 -0.0924638 -0.0589663 
-0.0608218 -0.118038 -0.241483 -0.0950468 -0.165784 -0.463478 -0.101725 0.0434232 -0.346161 
0.0299185 0.0831498 -0.427427 0.0308353 0.0870371 -0.256449 0.132678 -0.172392 -0.183924 
0.026336 -0.178581 -0.269329 0.15087 -0.136488 -0.326005 -0.0545633 -0.125736 -0.332294 
0.102716 0.0876337 -0.055851 0.153509 0.320876 -0.389461 0.261548 0.133251 -0.339834 
0.0143305 -0.162537 -0.47486 -0.088716 -0.108667 -0.0361711 0.0550973 0.0787449 0.0329055 
-0.125096 -0.0383232 -0.13922 0.348857 0.227075 -0.233603 0.128238 0.222616 -0.012877 
-0.00665371 0.139156 -0.32908 0.365277 0.318997 -0.308187 -0.140116 0.0318149 -0.370792 
0.153234 -0.157833 0.192283 0.0880599 0.174755 -0.247069 -0.324403 0.507245 -0.0851949 
0.0908128 0.184475 -0.14628 0.0431399 -0.0719378 -0.473808 0.220969 0.0204628 -0.421385 
-0.0357755 -0.388872 -0.267544 0.218745 -0.147045 -0.396238 -0.157371 -0.0440631 -0.444261 
0.0816011 -0.199261 -0.136953 -0.182283 -0.227722 -0.0602143 0.258407 -0.00245112 -0.271178 
-0.135515 -0.190481 -0.230972 0.00129734 -0.0308033 -0.218524 0.218684 -0.354309 -0.345805 
-0.0593728 0.177345 -0.562301 -0.144646 -0.118096 0.116331 0.2881 0.16332 -0.2934 
-0.0843009 0.0625663 -0.33319 0.21165 0.111747 -0.567749 -0.155952 0.192986 -0.174456 
-0.160344 0.138755 -0.18493 0.118793 0.207742 -0.322116 -0.342282 -0.149134 -0.27067 
-0.0230202 0.0477223 -0.211143 -0.0481529 -0.0968511 -0.200145 0.178075 -0.151196 -0.082666 
-0.0748893 0.0670889 -0.30755 -0.210835 0.263667 -0.182313 0.203654 0.350421 -0.162712 
-0.0914843 -0.162742 -0.524164 0.0842095 0.177929 -0.171127 -0.0338327 0.109484 -0.353125 
-0.0605763 -0.118225 -0.683686 -0.101432 0.0255709 -0.283676 0.252044 0.241747 -0.566591 
-0.0640177 -0.155809 -0.13346 -0.118071 0.207358 -0.00361962 -0.316822 0.116823 -0.208995 
0.0287981 -0.100195 -0.670907 -0.0485985 -0.0678172 -0.373969 0.0850586 -0.132603 -0.620104 
0.130069 -0.0159483 -0.11477 0.000665558 0.128016 -0.420351 0 0 -0.692277 
0.0725592 -0.0831292 -0.665847 0.0296598 -0.139639 -0.365313 -0.0216067 0.0496299 -0.147524 
-0.126529 -0.119854 -0.371441 -0.148856 0.211309 -0.207962 -0.031122 0.0669493 -0.540412 
-0.126336 0.043524 -0.24648 0.111725 0.139348 -0.345504 -0.0319984 0.073522 -0.481292 
0.050821 0.106725 -0.651507 0.0591114 0.00857877 -0.698446 -0.00911372 -0.136045 -0.0747858 
-0.176497 0.020893 -0.293304 -0.241461 0.136608 -0.293874 0.0505539 0.06452 -0.592633 
0.168162 -0.226196 -0.43177 0.125583 -0.100854 -0.551599 0.0906589 -0.0182278 -0.364016 
-0.0906584 0.188484 -0.315494 -0.0672661 0.226193 -0.480295 -0.0565743 0.0555589 0.0499021 
-0.0111143 -0.24369 -0.36303 0 0 -0.692277 -0.101836 -0.191615 -0.4168 
-0.200647 -0.0415671 -0.634133 0 0 -0.692277 0 0 -0.692277 
-0.00282727 0.171642 -0.432831 0.168168 -0.0858883 -0.642533 -0.141788 0.0396091 -0.652925 
-0.017805 0.0210458 -0.621456 0.011499 -0.127544 -0.411208 0.221838 -0.0309238 -0.584836 
0.139092 -0.13648 -0.567074 0 0 -0.692277 -0.15137 -0.12397 -0.373853 
-0.0219379 0.121887 -0.171891 -0.0578897 -0.184674 -0.334995 -0.0589282 -0.00839055 -0.562306 
0 0 -0.692277 0 0 -0.692277 0 0 -0.692277 
-0.0590283 0.0158565 -0.572324 -0.0730995 0.0338654 -0.520356 -0.0831913 -0.00468518 -0.69408 
-0.0737003 0.222075 -0.527371 0.0730544 0.285384 -0.206865 0.0389381 0.0117594 -0.678165 
0.0179457 0.0861429 -0.51396 0 0 -0.692277 -0.0137245 0.111583 -0.650955 
0 0 -0.692277 0.115714 -0.283763 -0.437448 0 0 -0.692277 
0.0304981 -0.182448 -0.466605 -0.000144928 -0.0722157 -0.522286 0 0 -0.692277 
-0.0485652 -0.166098 -0.360278 0 0 -0.692277 0 0 -0.692277 
0 0 -0.692277 -0.0537695 0.0559925 -0.461497 0 0 -0.692277 
0 0 -0.692277 0 0 -0.692277 0 0 -0.692277 
0.00931184 0.0185993 -0.635275 -0.181299 -0.0102784 -0.33756 0.172221 -0.0929347 -0.659942 
0 0 -0.692277 0 0 -0.692277 0.0488388 0.0427618 -0.49251 
0 0 -0.692277 0 0 -0.692277 0 0 -0.692277 
0 0 -0.692277 0 0 -0.692277 0.0180996 -0.0536658 -0.567382 
0 0 -0.692277 0 0 -0.692277 -0.215375 -0.00507631 -0.559288 
-0.0517569 -0.0509461 -0.641407 0.0317861 -0.0666923 -0.597239 0 0 -0.692277 
0 0 -0.692277 0 0 -0.692277 -0.00335155 -0.00193557 -0.68927 
0.000130473 -0.000288029 -0.692054 0.0873463 0.0530288 -0.600468 0 0 -0.692277 
0 0 -0.692277 0 0 -0.692277 0 0 -0.692277 
0 0 -0.692277 0 0 -0.692277 0 0 -0.692277 
0 0 -0.692277 0 0 -0.692277 0 0 -0.692277 
0 0 -0.692277 0 0 -0.692277 0.129305 -0.0491475 -0.530049 
0 0 -0.692277 0 0 -0.692277 0 0 -0.692277 
0 0 -0.692277 0 0 -0.692277 0 0 -0.692277 