# vtk DataFile Version 4.0
Generated by LIGGGHTS
ASCII
DATASET POLYDATA
POINTS 890 float
0.00185686 -0.046066 0.00394007 -0.0192005 -0.0418359 0.00394376 -0.0116831 -0.0445211 0.00395397 
0.0107383 -0.0447708 0.00392358 0.0194845 -0.0417395 0.00393619 -0.0261542 -0.0379248 0.00394339 
-0.013126 -0.0366853 0.00391732 -0.00358786 -0.0391119 0.00388465 0.00433039 -0.0385995 0.00391537 
0.0120967 -0.0369239 0.00393228 0.0263672 -0.0377001 0.00396898 -0.0322533 -0.0328529 0.00395529 
-0.0200507 -0.0328841 0.00391583 -0.00685979 -0.0317751 0.00396171 0.0067349 -0.0310758 0.00395492 
0.0193744 -0.0338106 0.00389328 0.0325099 -0.032551 0.00392774 -0.0338134 -0.0250751 0.0039314 
-0.0258544 -0.0274358 0.00391336 -0.0133674 -0.0271616 0.00391175 -0.000981221 -0.0263969 0.00382962 
0.0140345 -0.0278816 0.00394591 0.0376814 -0.0265073 0.00390893 -0.0408155 -0.0213319 0.00390902 
-0.0201423 -0.0218755 0.0039734 -0.00769194 -0.0216026 0.00390745 0.00629082 -0.0232023 0.00394518 
0.0222365 -0.0230114 0.00390354 0.0300751 -0.0242528 0.00390832 -0.0278954 -0.019764 0.00391939 
-0.0140126 -0.0167764 0.00396602 -0.000114223 -0.0185001 0.00394176 0.00717385 -0.0153571 0.00396028 
0.0144311 -0.0187632 0.00398066 0.0282198 -0.0165672 0.00483979 0.0358013 -0.0187808 0.00391997 
0.0432058 -0.0158862 0.00397482 -0.0380569 -0.0138788 0.00389517 -0.0302522 -0.0121637 0.00398077 
-0.0222014 -0.0141721 0.00397177 -0.00552216 -0.0127057 0.0039189 0.0135408 -0.0106829 0.0038679 
0.020788 -0.0139199 0.00388489 0.0350328 -0.0109225 0.00397379 -0.0449709 -0.0100036 0.00396597 
-0.023679 -0.00634915 0.00388263 -0.0145908 -0.00884185 0.00389722 0.00177143 -0.00951474 0.00393113 
0.0199617 -0.00601176 0.00393441 0.027424 -0.00869993 0.0039005 0.0452971 -0.00819925 0.00390392 
-0.0393323 -0.00440891 0.0039534 -0.031357 -0.00428278 0.00395186 -0.0174871 -0.0013396 0.00395096 
-0.00862234 -0.00363687 0.00397638 -0.00157528 1.47873e-06 0.00392731 0.00840207 -0.00356211 0.00387901 
0.0283356 -0.000808679 0.00391205 0.0386042 -0.00388002 0.0039063 -0.04606 0.00159888 0.00386727 
-0.0316444 0.00363829 0.00394847 -0.0237253 0.00471413 0.00393646 -0.0082692 0.00432767 0.00393247 
0.00566655 0.00388068 0.00395494 0.0219774 0.00394104 0.00390925 0.0457379 0.000554024 0.00398151 
-0.0450371 0.00946241 0.00391782 -0.0370664 0.00990644 0.00393959 -0.0159394 0.00647681 0.00396672 
-0.0011575 0.00793528 0.00390361 0.0128729 0.00758571 0.00390127 0.0293708 0.00710391 0.00390573 
0.0388412 0.00658996 0.00394031 -0.0291971 0.0111902 0.00395081 -0.0213151 0.0123579 0.00393336 
-0.0102026 0.0120231 0.00387848 0.00615597 0.0118225 0.00394054 0.0197861 0.0115597 0.0039175 
0.0271113 0.0147013 0.00395051 0.0350066 0.0136221 0.00389226 0.0443658 0.0123181 0.0039403 
-0.0427491 0.0170851 0.00394177 -0.0348059 0.0174878 0.00394568 -0.0262586 0.0185841 0.00390899 
-0.0155557 0.0179174 0.00397846 -0.00659729 0.0190863 0.00390668 0.0055147 0.019757 0.00392052 
0.0130639 0.0158075 0.00388739 0.0207668 0.0195281 0.00394743 0.0415795 0.0197517 0.00392826 
-0.0390436 0.0243249 0.00396616 -0.0204363 0.0242056 0.00394967 -0.000825867 0.0245944 0.00396405 
0.0284043 0.0225105 0.00392212 -0.0263974 0.0294981 0.00390842 -0.0132799 0.0277208 0.00391994 
0.00806334 0.0272666 0.00394315 0.0162636 0.026295 0.00391528 0.025075 0.029697 0.00387763 
0.037565 0.0266054 0.00391823 -0.0342844 0.0307689 0.00392533 -0.0192507 0.0329253 0.00387504 
-0.00604491 0.0309211 0.00390342 0.00236814 0.0328421 0.00395232 0.0104734 0.0348543 0.0039752 
0.018373 0.0339634 0.00398539 0.0324422 0.0326735 0.00396376 -0.026804 0.0374324 0.00398459 
-0.0118212 0.0363856 0.00396265 -0.0033815 0.0383995 0.00386833 0.0263014 0.0377535 0.00392655 
-0.0199411 0.0414654 0.00398072 -0.0125103 0.0443143 0.00395867 0.00479635 0.0404165 0.00392858 
0.0115151 0.0445984 0.00391256 0.0191783 0.0418632 0.00395714 -0.000794843 0.0460469 0.00395662 
-0.0049427 -0.0458077 0.00797542 -0.00863223 -0.0390713 0.00993999 -0.0251468 -0.0324483 0.00999355 
-2.58167e-06 -0.0331431 0.00776083 -0.0189448 -0.0274506 0.0095441 -0.00598028 -0.0264941 0.00991786 
0.0253311 -0.0297366 0.00700375 0.0406817 -0.0216808 0.00941908 -0.043035 -0.0163169 0.00962227 
-0.0341493 -0.0187308 0.00875919 -0.0352474 -0.00876515 0.0092183 -0.0196063 -0.00935109 0.0099476 
-0.00318171 -0.0062621 0.00920671 0.00775675 -0.00937233 0.00914161 -0.0458578 -0.00412639 0.00925435 
-0.0253789 -0.000878245 0.00934448 0.00339978 -0.00184086 0.00977918 -0.0389513 0.00289467 0.00704615 
0.0151939 0.000156052 0.00543151 0.0401343 0.00124325 0.00967728 0.0455621 0.00697008 0.00967282 
-0.0156967 0.0121814 0.00952956 -0.021217 0.0178577 0.00994872 -0.000346912 0.0152422 0.0068989 
-0.031284 0.0239936 0.00670114 -0.0153723 0.0231536 0.0100177 -0.0077571 0.0250333 0.00897738 
0.011876 0.0218649 0.00884562 0.0348217 0.0204118 0.00809426 0.029749 0.0275256 0.0099236 
-0.00641925 0.0436063 0.00900221 -0.00887613 -0.0452451 0.014851 0.00637637 -0.0456159 0.0104903 
-0.0227771 -0.0400243 0.010816 -0.0155019 -0.0433115 0.0108331 0.000339044 -0.040461 0.0106435 
0.0144641 -0.0413641 0.0100574 0.00793517 -0.0368198 0.0107214 0.0229728 -0.0398535 0.0108676 
0.0296469 -0.0352211 0.010807 -0.0336498 -0.0314416 0.0116533 -0.0184374 -0.0341519 0.0139375 
-0.0118877 -0.0318272 0.010146 -0.0050444 -0.0332312 0.0139455 0.0150716 -0.0334243 0.0105212 
0.0222314 -0.0324491 0.013824 -0.0384744 -0.0252769 0.0103669 0.00571173 -0.0292114 0.0116177 
0.0187643 -0.0263956 0.0101583 0.0283087 -0.0272006 0.0138689 0.0352698 -0.0295727 0.0108027 
-0.0293946 -0.0248349 0.0105287 -0.0228617 -0.0226026 0.0144103 -0.0127022 -0.0223682 0.0102311 
0.00112468 -0.0228386 0.0105167 0.0115051 -0.023251 0.0099136 0.0328537 -0.0214831 0.0107994 
-0.02651 -0.0164217 0.0109482 -0.0186322 -0.0171744 0.0104409 -0.00496417 -0.0176327 0.0101686 
0.00251964 -0.0150454 0.0108173 0.0105353 -0.0158788 0.0127132 0.0202792 -0.0186163 0.0101902 
0.0272929 -0.01627 0.0131616 -0.0449472 -0.0101653 0.0142301 -0.0378305 -0.0135264 0.0150122 
-0.00987605 -0.0104449 0.0100999 0.023109 -0.0100452 0.0103961 0.0370512 -0.0147243 0.0106998 
0.0445005 -0.011987 0.0108196 -0.0274529 -0.00850995 0.0105384 0.0153568 -0.00875318 0.0112624 
0.0310132 -0.00958821 0.0109084 0.0384696 -0.00687664 0.0113112 -0.0395626 -0.00430168 0.014112 
-0.0331497 -0.000816888 0.0109389 -0.0140526 -0.00370369 0.0107194 0.0101226 -0.00333196 0.0137426 
0.0207656 -0.00193801 0.010685 0.0326399 -0.00157731 0.0104857 0.0458912 -0.00410859 0.010655 
-0.0392386 0.00360934 0.0149425 -0.0185017 0.00290564 0.0106292 -0.00723878 0.000392635 0.0107193 
-0.00234963 0.00496342 0.0150418 0.010262 0.00387008 0.0104428 0.0265226 0.0035125 0.0103575 
-0.0457236 0.00547944 0.0107766 -0.0316092 0.00742543 0.0109326 -0.0237301 0.00891171 0.0106797 
-0.0118273 0.00633898 0.013257 0.00342738 0.00800403 0.0104083 0.0177381 0.0066225 0.0101048 
0.034022 0.00621699 0.0102549 -0.0441693 0.0132675 0.0107953 -0.036338 0.0138 0.0108545 
-0.00562821 0.0101508 0.0100325 -0.000476724 0.0139415 0.0147459 0.0108957 0.0117664 0.0103284 
0.0242716 0.0111555 0.0104631 0.0317577 0.0137394 0.0111095 0.0394694 0.0120211 0.0102201 
-0.0285858 0.0151961 0.010782 -0.00877535 0.0173378 0.0113594 0.00573038 0.0176374 0.0115357 
0.0177462 0.015781 0.0103016 0.0258745 0.0190119 0.0106077 0.0417741 0.0194566 0.0118472 
-0.0410802 0.0207323 0.0107926 -0.0335728 0.0207523 0.0135189 -0.00129935 0.0213758 0.0118347 
0.0194017 0.023569 0.0106572 -0.0369443 0.0275182 0.0109778 -0.0245039 0.0252281 0.0107001 
-0.00141265 0.0295936 0.0101307 0.0053756 0.025693 0.0112844 0.0124959 0.029699 0.0100592 
0.0374202 0.0269544 0.0118231 -0.0316397 0.0334491 0.0109036 -0.0237258 0.0331578 0.0104007 
-0.0128487 0.0305088 0.0116823 0.0226343 0.0314181 0.0111534 -0.016872 0.0371611 0.0100608 
-0.00675053 0.0354895 0.0104373 0.000813111 0.0386767 0.0105363 0.0086786 0.0375202 0.011279 
0.016404 0.0359472 0.0129673 0.022905 0.0399445 0.0107473 0.0294803 0.0354113 0.0108337 
-0.0136653 0.0440395 0.0121916 0.0153123 0.0434495 0.0107344 -0.000114487 0.0460898 0.013146 
0.00745464 0.0453989 0.010724 0.000630717 -0.046102 0.016131 -0.022694 -0.0400955 0.0187646 
-0.0155017 -0.0433627 0.0187824 0.00691383 -0.041351 0.0171618 0.0144261 -0.0437544 0.0175781 
-0.0288253 -0.0359451 0.0160435 -0.0115105 -0.0367433 0.016909 -0.00398814 -0.039933 0.0180847 
0.0158561 -0.0359051 0.0180546 0.0266822 -0.0376386 0.0177238 0.002378 -0.0349494 0.0160421 
0.0327388 -0.0324539 0.0177604 -0.0371571 -0.0271706 0.0179831 -0.0285207 -0.0267725 0.0181885 
-0.0155935 -0.0261646 0.016621 -0.0047252 -0.0262346 0.0177252 0.00280274 -0.027897 0.0196151 
0.0119814 -0.0291179 0.0164475 0.0386312 -0.0249903 0.0163952 -0.0412344 -0.0205741 0.0161187 
-0.0332842 -0.0203807 0.016473 0.00670399 -0.0219748 0.0161064 0.0144597 -0.021676 0.0177932 
0.0221755 -0.0229948 0.0165091 -0.0177337 -0.0182078 0.0185926 -0.0107221 -0.0162826 0.0154329 
-0.0012954 -0.0191308 0.0170503 0.0347775 -0.0181348 0.0177278 0.0425161 -0.0176778 0.0159817 
-0.0302002 -0.0126159 0.0168136 -0.0223144 -0.0119042 0.0169458 -0.00326567 -0.0116328 0.0150925 
0.00502724 -0.0145628 0.0183739 0.0174948 -0.0144708 0.0162921 0.0448182 -0.0105738 0.0186526 
-0.014783 -0.00948267 0.0162196 -0.00807663 -0.00766945 0.0200252 0.00348352 -0.00738363 0.0154761 
0.0113798 -0.00980371 0.0181646 0.0236247 -0.00884412 0.0181973 0.0331798 -0.00547229 0.0173413 
-0.046061 -0.000289933 0.0162425 -0.0289224 -0.00394896 0.0168796 -0.0211089 -0.00380985 0.0154038 
-0.0133989 -0.00195896 0.0184582 -0.00287525 -0.00283006 0.0164865 0.0172006 -0.00420035 0.0174014 
0.0262996 -0.00161101 0.0163718 0.0387883 0.000144964 0.0173757 0.0460225 -0.00275749 0.0184684 
-0.0266511 0.00357702 0.0157965 -0.0196363 0.00286567 0.019418 0.00506775 0.00236859 0.0162638 
0.0123873 0.00179755 0.019346 0.0200279 0.00325719 0.0169358 -0.0450324 0.00940981 0.0176925 
[...]
POINT_DATA 890
FIELD FieldData 9
id 1 890 int
328 395 635 139 347 203 196 236 800 
586 677 582 256 398 603 449 396 177 
871 806 739 153 532 627 810 477 860 
28 388 471 90 611 521 602 102 671 
169 351 190 666 39 145 249 120 740 
876 755 634 176 134 46 275 731 62 
11 830 119 833 385 329 189 702 199 
506 483 873 675 307 82 197 319 738 
538 654 657 473 159 274 450 327 174 
2 10 276 575 787 426 534 14 858 
138 180 432 531 418 224 278 724 842 
430 662 462 35 469 408 298 326 53 
89 349 706 4 742 641 416 546 859 
650 101 713 883 699 85 216 601 192 
874 323 759 333 696 230 520 625 401 
265 244 461 227 804 698 67 116 594 
118 390 440 242 886 37 596 231 376 
179 613 17 65 598 309 571 80 162 
284 97 52 692 429 206 111 59 630 
66 198 200 86 142 664 413 649 779 
667 674 113 33 879 341 884 411 553 
862 535 498 682 563 105 259 44 257 
422 250 659 239 530 570 849 50 708 
182 482 827 217 632 175 96 766 363 
195 809 140 653 317 816 228 689 672 
508 16 854 316 836 19 150 478 767 
748 222 869 123 405 680 795 41 258 
38 737 289 338 207 687 733 392 608 
851 690 409 776 467 778 218 167 358 
526 794 184 618 780 310 544 799 523 
622 888 758 221 268 393 70 103 386 
76 488 55 354 515 668 636 576 855 
322 252 215 141 599 348 253 588 366 
606 628 676 295 5 367 514 568 121 
18 350 679 541 821 262 383 797 619 
375 694 64 808 273 313 77 171 765 
460 229 796 771 715 431 47 503 791 
269 489 501 438 751 364 7 377 314 
63 726 707 623 399 420 519 365 652 
545 812 382 880 743 337 149 504 673 
126 110 243 56 612 318 824 479 499 
640 404 864 108 286 782 336 240 474 
370 651 343 848 517 237 30 480 729 
21 557 414 339 94 133 99 406 645 
585 292 223 811 464 448 749 847 87 
695 397 251 104 505 456 655 315 311 
609 22 308 92 558 281 136 29 331 
446 378 468 166 129 455 380 574 578 
547 254 727 844 597 114 428 881 266 
73 444 725 642 248 125 723 42 870 
419 802 722 290 210 638 721 669 435 
75 187 486 320 495 688 451 291 417 
744 700 373 701 271 803 424 757 280 
332 829 801 616 840 875 507 878 407 
205 736 160 882 605 433 297 445 164 
368 260 246 127 720 683 132 465 12 
463 852 107 522 660 510 850 188 761 
161 838 300 219 746 579 115 122 34 
793 615 572 648 334 381 705 714 285 
128 775 421 58 837 494 610 226 54 
528 362 559 61 691 518 734 148 845 
154 524 91 208 458 71 584 484 403 
466 556 26 670 491 637 36 457 352 
437 785 157 369 345 856 238 772 57 
173 550 529 83 374 43 452 853 402 
644 817 728 213 581 647 68 40 423 
885 475 788 335 857 537 209 562 25 
1 212 798 288 470 681 72 360 88 
186 357 770 502 106 711 747 492 626 
600 6 820 124 569 69 865 774 454 
513 344 321 325 819 867 294 389 709 
684 245 211 685 567 697 191 283 135 
704 777 735 591 202 573 117 84 604 
45 193 490 394 359 527 493 340 263 
78 346 225 629 552 763 178 826 3 
877 439 589 220 8 272 306 442 583 
20 436 487 590 686 789 9 658 481 
716 756 270 564 15 863 807 633 23 
305 264 112 718 384 233 561 143 754 
790 303 500 304 764 631 768 784 425 
98 781 663 509 516 255 678 330 580 
355 302 361 434 282 427 533 342 279 
732 485 593 301 511 496 27 656 866 
183 717 412 146 100 889 170 745 24 
312 158 786 371 815 296 214 277 299 
551 201 643 540 165 555 752 130 549 
400 441 621 93 81 560 247 624 512 
324 459 773 156 565 805 109 261 443 
476 753 172 887 372 241 163 890 769 
415 147 822 391 144 548 204 410 665 
49 646 185 741 267 710 839 543 453 
542 750 577 51 828 155 831 137 843 
592 235 614 287 539 234 703 814 832 
595 60 661 497 447 834 868 536 760 
168 151 181 566 823 152 693 356 841 
95 861 32 79 762 825 13 472 194 
131 379 818 587 719 353 813 639 48 
783 31 232 872 712 74 792 293 607 
617 387 835 525 620 730 846 554 
type 1 890 int
1 1 1 1 1 1 1 1 1 
1 1 1 1 1 1 1 1 1 
1 1 1 1 1 1 1 1 1 
1 1 1 1 1 1 1 1 1 
1 1 1 1 1 1 1 1 1 
1 1 1 1 1 1 1 1 1 
1 1 1 1 1 1 1 1 1 
1 1 1 1 1 1 1 1 1 
1 1 1 1 1 1 1 1 1 
1 1 1 1 1 1 1 1 1 
1 1 1 1 1 1 1 1 1 
1 1 1 1 1 1 1 1 1 
1 1 1 1 1 1 1 1 1 
1 1 1 1 1 1 1 1 1 
1 1 1 1 1 1 1 1 1 
1 1 1 1 1 1 1 1 1 
1 1 1 1 1 1 1 1 1 
1 1 1 1 1 1 1 1 1 
1 1 1 1 1 1 1 1 1 
1 1 1 1 1 1 1 1 1 
1 1 1 1 1 1 1 1 1 
1 1 1 1 1 1 1 1 1 
1 1 1 1 1 1 1 1 1 
1 1 1 1 1 1 1 1 1 
1 1 1 1 1 1 1 1 1 
1 1 1 1 1 1 1 1 1 
1 1 1 1 1 1 1 1 1 
1 1 1 1 1 1 1 1 1 
1 1 1 1 1 1 1 1 1 
1 1 1 1 1 1 1 1 1 
1 1 1 1 1 1 1 1 1 
1 1 1 1 1 1 1 1 1 
1 1 1 1 1 1 1 1 1 
1 1 1 1 1 1 1 1 1 
1 1 1 1 1 1 1 1 1 
1 1 1 1 1 1 1 1 1 
1 1 1 1 1 1 1 1 1 
1 1 1 1 1 1 1 1 1 
1 1 1 1 1 1 1 1 1 
1 1 1 1 1 1 1 1 1 
1 1 1 1 1 1 1 1 1 
1 1 1 1 1 1 1 1 1 
1 1 1 1 1 1 1 1 1 
1 1 1 1 1 1 1 1 1 
1 1 1 1 1 1 1 1 1 
1 1 1 1 1 1 1 1 1 
1 1 1 1 1 1 1 1 1 
1 1 1 1 1 1 1 1 1 
1 1 1 1 1 1 1 1 1 
1 1 1 1 1 1 1 1 1 
1 1 1 1 1 1 1 1 1 
1 1 1 1 1 1 1 1 1 
1 1 1 1 1 1 1 1 1 
1 1 1 1 1 1 1 1 1 
1 1 1 1 1 1 1 1 1 
1 1 1 1 1 1 1 1 1 
1 1 1 1 1 1 1 1 1 
1 1 1 1 1 1 1 1 1 
1 1 1 1 1 1 1 1 1 
1 1 1 1 1 1 1 1 1 
1 1 1 1 1 1 1 1 1 
1 1 1 1 1 1 1 1 1 
1 1 1 1 1 1 1 1 1 
1 1 1 1 1 1 1 1 1 
1 1 1 1 1 1 1 1 1 
1 1 1 1 1 1 1 1 1 
1 1 1 1 1 1 1 1 1 
1 1 1 1 1 1 1 1 1 
1 1 1 1 1 1 1 1 1 
1 1 1 1 1 1 1 1 1 
1 1 1 1 1 1 1 1 1 
1 1 1 1 1 1 1 1 1 
1 1 1 1 1 1 1 1 1 
1 1 1 1 1 1 1 1 1 
1 1 1 1 1 1 1 1 1 
1 1 1 1 1 1 1 1 1 
1 1 1 1 1 1 1 1 1 
1 1 1 1 1 1 1 1 1 
1 1 1 1 1 1 1 1 1 
1 1 1 1 1 1 1 1 1 
1 1 1 1 1 1 1 1 1 
1 1 1 1 1 1 1 1 1 
1 1 1 1 1 1 1 1 1 
1 1 1 1 1 1 1 1 1 
1 1 1 1 1 1 1 1 1 
1 1 1 1 1 1 1 1 1 
1 1 1 1 1 1 1 1 1 
1 1 1 1 1 1 1 1 1 
1 1 1 1 1 1 1 1 1 
1 1 1 1 1 1 1 1 1 
1 1 1 1 1 1 1 1 1 
1 1 1 1 1 1 1 1 1 
1 1 1 1 1 1 1 1 1 
1 1 1 1 1 1 1 1 1 
1 1 1 1 1 1 1 1 1 
1 1 1 1 1 1 1 1 1 
1 1 1 1 1 1 1 1 1 
1 1 1 1 1 1 1 1 1 
1 1 1 1 1 1 1 1 
i 3 890 int
0 0 0 0 0 0 0 0 0 
0 0 0 0 0 0 0 0 0 
0 0 0 0 0 0 0 0 0 
0 0 0 0 0 0 0 0 0 
0 0 0 0 0 0 0 0 0 
0 0 0 0 0 0 0 0 0 
0 0 0 0 0 0 0 0 0 
0 0 0 0 0 0 0 0 0 
0 0 0 0 0 0 0 0 0 
0 0 0 0 0 0 0 0 0 
0 0 0 0 0 0 0 0 0 
0 0 0 0 0 0 0 0 0 
0 0 0 0 0 0 0 0 0 
0 0 0 0 0 0 0 0 0 
0 0 0 0 0 0 0 0 0 
0 0 0 0 0 0 0 0 0 
0 0 0 0 0 0 0 0 0 
0 0 0 0 0 0 0 0 0 
0 0 0 0 0 0 0 0 0 
0 0 0 0 0 0 0 0 0 
0 0 0 0 0 0 0 0 0 
0 0 0 0 0 0 0 0 0 
0 0 0 0 0 0 0 0 0 
0 0 0 0 0 0 0 0 0 
0 0 0 0 0 0 0 0 0 
0 0 0 0 0 0 0 0 0 
0 0 0 0 0 0 0 0 0 
0 0 0 0 0 0 0 0 0 
0 0 0 0 0 0 0 0 0 
0 0 0 0 0 0 0 0 0 
0 0 0 0 0 0 0 0 0 
0 0 0 0 0 0 0 0 0 
0 0 0 0 0 0 0 0 0 
0 0 0 0 0 0 0 0 0 
0 0 0 0 0 0 0 0 0 
0 0 0 0 0 0 0 0 0 
0 0 0 0 0 0 0 0 0 
0 0 0 0 0 0 0 0 0 
0 0 0 0 0 0 0 0 0 
0 0 0 0 0 0 0 0 0 
0 0 0 0 0 0 0 0 0 
0 0 0 0 0 0 0 0 0 
0 0 0 0 0 0 0 0 0 
0 0 0 0 0 0 0 0 0 
0 0 0 0 0 0 0 0 0 
0 0 0 0 0 0 0 0 0 
0 0 0 0 0 0 0 0 0 
0 0 0 0 0 0 0 0 0 
0 0 0 0 0 0 0 0 0 
0 0 0 0 0 0 0 0 0 
0 0 0 0 0 0 0 0 0 
0 0 0 0 0 0 0 0 0 
0 0 0 0 0 0 0 0 0 
0 0 0 0 0 0 0 0 0 
0 0 0 0 0 0 0 0 0 
0 0 0 0 0 0 0 0 0 
0 0 0 0 0 0 0 0 0 
0 0 0 0 0 0 0 0 0 
0 0 0 0 0 0 0 0 0 
0 0 0 0 0 0 0 0 0 
0 0 0 0 0 0 0 0 0 
0 0 0 0 0 0 0 0 0 
0 0 0 0 0 0 0 0 0 
0 0 0 0 0 0 0 0 0 
0 0 0 0 0 0 0 0 0 
0 0 0 0 0 0 0 0 0 
0 0 0 0 0 0 0 0 0 
0 0 0 0 0 0 0 0 0 
0 0 0 0 0 0 0 0 0 
0 0 0 0 0 0 0 0 0 
0 0 0 0 0 0 0 0 0 
0 0 0 0 0 0 0 0 0 
0 0 0 0 0 0 0 0 0 
0 0 0 0 0 0 0 0 0 
0 0 0 0 0 0 0 0 0 
0 0 0 0 0 0 0 0 0 
0 0 0 0 0 0 0 0 0 
0 0 0 0 0 0 0 0 0 
0 0 0 0 0 0 0 0 0 
0 0 0 0 0 0 0 0 0 
0 0 0 0 0 0 0 0 0 
0 0 0 0 0 0 0 0 0 
0 0 0 0 0 0 0 0 0 
0 0 0 0 0 0 0 0 0 
0 0 0 0 0 0 0 0 0 
0 0 0 0 0 0 0 0 0 
0 0 0 0 0 0 0 0 0 
0 0 0 0 0 0 0 0 0 
0 0 0 0 0 0 0 0 0 
0 0 0 0 0 0 0 0 0 
0 0 0 0 0 0 0 0 0 
0 0 0 0 0 0 0 0 0 
0 0 0 0 0 0 0 0 0 
0 0 0 0 0 0 0 0 0 
0 0 0 0 0 0 0 0 0 
0 0 0 0 0 0 0 0 0 
0 0 0 0 0 0 0 0 0 
0 0 0 0 0 0 0 0 0 
0 0 0 0 0 0 0 0 0 
0 0 0 0 0 0 0 0 0 
0 0 0 0 0 0 0 0 0 
0 0 0 0 0 0 0 0 0 
0 0 0 0 0 0 0 0 0 
0 0 0 0 0 0 0 0 0 
0 0 0 0 0 0 0 0 0 
0 0 0 0 0 0 0 0 0 
0 0 0 0 0 0 0 0 0 
0 0 0 0 0 0 0 0 0 
0 0 0 0 0 0 0 0 0 
0 0 0 0 0 0 0 0 0 
0 0 0 0 0 0 0 0 0 
0 0 0 0 0 0 0 0 0 
0 0 0 0 0 0 0 0 0 
0 0 0 0 0 0 0 0 0 
0 0 0 0 0 0 0 0 0 
0 0 0 0 0 0 0 0 0 
0 0 0 0 0 0 0 0 0 
0 0 0 0 0 0 0 0 0 
0 0 0 0 0 0 0 0 0 
0 0 0 0 0 0 0 0 0 
0 0 0 0 0 0 0 0 0 
0 0 0 0 0 0 0 0 0 
0 0 0 0 0 0 0 0 0 
0 0 0 0 0 0 0 0 0 
0 0 0 0 0 0 0 0 0 
0 0 0 0 0 0 0 0 0 
0 0 0 0 0 0 0 0 0 
0 0 0 0 0 0 0 0 0 
0 0 0 0 0 0 0 0 0 
0 0 0 0 0 0 0 0 0 
0 0 0 0 0 0 0 0 0 
0 0 0 0 0 0 0 0 0 
0 0 0 0 0 0 0 0 0 
0 0 0 0 0 0 0 0 0 
0 0 0 0 0 0 0 0 0 
0 0 0 0 0 0 0 0 0 
0 0 0 0 0 0 0 0 0 
0 0 0 0 0 0 0 0 0 
0 0 0 0 0 0 0 0 0 
0 0 0 0 0 0 0 0 0 
0 0 0 0 0 0 0 0 0 
0 0 0 0 0 0 0 0 0 
0 0 0 0 0 0 0 0 0 
0 0 0 0 0 0 0 0 0 
0 0 0 0 0 0 0 0 0 
0 0 0 0 0 0 0 0 0 
0 0 0 0 0 0 0 0 0 
0 0 0 0 0 0 0 0 0 
0 0 0 0 0 0 0 0 0 
0 0 0 0 0 0 0 0 0 
0 0 0 0 0 0 0 0 0 
0 0 0 0 0 0 0 0 0 
0 0 0 0 0 0 0 0 0 
0 0 0 0 0 0 0 0 0 
0 0 0 0 0 0 0 0 0 
0 0 0 0 0 0 0 0 0 
0 0 0 0 0 0 0 0 0 
0 0 0 0 0 0 0 0 0 
0 0 0 0 0 0 0 0 0 
0 0 0 0 0 0 0 0 0 
0 0 0 0 0 0 0 0 0 
0 0 0 0 0 0 0 0 0 
0 0 0 0 0 0 0 0 0 
0 0 0 0 0 0 0 0 0 
0 0 0 0 0 0 0 0 0 
0 0 0 0 0 0 0 0 0 
0 0 0 0 0 0 0 0 0 
0 0 0 0 0 0 0 0 0 
0 0 0 0 0 0 0 0 0 
0 0 0 0 0 0 0 0 0 
0 0 0 0 0 0 0 0 0 
0 0 0 0 0 0 0 0 0 
0 0 0 0 0 0 0 0 0 
0 0 0 0 0 0 0 0 0 
0 0 0 0 0 0 0 0 0 
0 0 0 0 0 0 0 0 0 
0 0 0 0 0 0 0 0 0 
0 0 0 0 0 0 0 0 0 
0 0 0 0 0 0 0 0 0 
0 0 0 0 0 0 0 0 0 
0 0 0 0 0 0 0 0 0 
0 0 0 0 0 0 0 0 0 
0 0 0 0 0 0 0 0 0 
0 0 0 0 0 0 0 0 0 
0 0 0 0 0 0 0 0 0 
0 0 0 0 0 0 0 0 0 
0 0 0 0 0 0 0 0 0 
0 0 0 0 0 0 0 0 0 
0 0 0 0 0 0 0 0 0 
0 0 0 0 0 0 0 0 0 
0 0 0 0 0 0 0 0 0 
0 0 0 0 0 0 0 0 0 
0 0 0 0 0 0 0 0 0 
0 0 0 0 0 0 0 0 0 
0 0 0 0 0 0 0 0 0 
0 0 0 0 0 0 0 0 0 
0 0 0 0 0 0 0 0 0 
0 0 0 0 0 0 0 0 0 
0 0 0 0 0 0 0 0 0 
0 0 0 0 0 0 0 0 0 
0 0 0 0 0 0 0 0 0 
0 0 0 0 0 0 0 0 0 
0 0 0 0 0 0 0 0 0 
0 0 0 0 0 0 0 0 0 
0 0 0 0 0 0 0 0 0 
0 0 0 0 0 0 0 0 0 
0 0 0 0 0 0 0 0 0 
0 0 0 0 0 0 0 0 0 
0 0 0 0 0 0 0 0 0 
0 0 0 0 0 0 0 0 0 
0 0 0 0 0 0 0 0 0 
0 0 0 0 0 0 0 0 0 
0 0 0 0 0 0 0 0 0 
0 0 0 0 0 0 0 0 0 
0 0 0 0 0 0 0 0 0 
0 0 0 0 0 0 0 0 0 
0 0 0 0 0 0 0 0 0 
0 0 0 0 0 0 0 0 0 
0 0 0 0 0 0 0 0 0 
0 0 0 0 0 0 0 0 0 
0 0 0 0 0 0 0 0 0 
0 0 0 0 0 0 0 0 0 
0 0 0 0 0 0 0 0 0 
0 0 0 0 0 0 0 0 0 
0 0 0 0 0 0 0 0 0 
0 0 0 0 0 0 0 0 0 
0 0 0 0 0 0 0 0 0 
0 0 0 0 0 0 0 0 0 
0 0 0 0 0 0 0 0 0 
0 0 0 0 0 0 0 0 0 
0 0 0 0 0 0 0 0 0 
0 0 0 0 0 0 0 0 0 
0 0 0 0 0 0 0 0 0 
0 0 0 0 0 0 0 0 0 
0 0 0 0 0 0 0 0 0 
0 0 0 0 0 0 0 0 0 
0 0 0 0 0 0 0 0 0 
0 0 0 0 0 0 0 0 0 
0 0 0 0 0 0 0 0 0 
0 0 0 0 0 0 0 0 0 
0 0 0 0 0 0 0 0 0 
0 0 0 0 0 0 0 0 0 
0 0 0 0 0 0 0 0 0 
0 0 0 0 0 0 0 0 0 
0 0 0 0 0 0 0 0 0 
0 0 0 0 0 0 0 0 0 
0 0 0 0 0 0 0 0 0 
0 0 0 0 0 0 0 0 0 
0 0 0 0 0 0 0 0 0 
0 0 0 0 0 0 0 0 0 
0 0 0 0 0 0 0 0 0 
0 0 0 0 0 0 0 0 0 
0 0 0 0 0 0 0 0 0 
0 0 0 0 0 0 0 0 0 
0 0 0 0 0 0 0 0 0 
0 0 0 0 0 0 0 0 0 
0 0 0 0 0 0 0 0 0 
0 0 0 0 0 0 0 0 0 
0 0 0 0 0 0 0 0 0 
0 0 0 0 0 0 0 0 0 
0 0 0 0 0 0 0 0 0 
0 0 0 0 0 0 0 0 0 
0 0 0 0 0 0 0 0 0 
0 0 0 0 0 0 0 0 0 
0 0 0 0 0 0 0 0 0 
0 0 0 0 0 0 0 0 0 
0 0 0 0 0 0 0 0 0 
0 0 0 0 0 0 0 0 0 
0 0 0 0 0 0 0 0 0 
0 0 0 0 0 0 0 0 0 
0 0 0 0 0 0 0 0 0 
0 0 0 0 0 0 0 0 0 
0 0 0 0 0 0 0 0 0 
0 0 0 0 0 0 0 0 0 
0 0 0 0 0 0 0 0 0 
0 0 0 0 0 0 0 0 0 
0 0 0 0 0 0 0 0 0 
0 0 0 0 0 0 0 0 0 
0 0 0 0 0 0 0 0 0 
0 0 0 0 0 0 0 0 0 
0 0 0 0 0 0 0 0 0 
0 0 0 0 0 0 0 0 0 
0 0 0 0 0 0 0 0 0 
0 0 0 0 0 0 0 0 0 
0 0 0 0 0 0 0 0 0 
0 0 0 0 0 0 0 0 0 
0 0 0 0 0 0 0 0 0 
0 0 0 0 0 0 0 0 0 
0 0 0 0 0 0 0 0 0 
0 0 0 0 0 0 0 0 0 
0 0 0 0 0 0 0 0 0 
0 0 0 0 0 0 0 0 0 
0 0 0 0 0 0 0 0 0 
0 0 0 0 0 0 0 0 0 
0 0 0 0 0 0 0 0 0 
0 0 0 0 0 0 0 0 0 
0 0 0 0 0 0 
v 3 890 double
0.00248489 0.00252829 0.00141476 -0.000677745 0.00103347 0.000717981 -0.000640564 0.00160087 -0.00155298 
0.0154247 0.00652613 0.00558144 0.0096317 0.00451743 0.00538643 0.00101211 0.000156192 0.00301901 
0.000718408 0.00275674 0.000145364 -0.00441462 0.00483995 0.00226667 -0.00321605 0.00440918 0.00463769 
-0.00454672 0.00996669 0.00384761 0.0114206 0.0138426 0.000102533 0.00127589 -0.000441727 -0.00108867 
0.00215468 0.00269626 -0.00232645 -0.000343382 0.00351522 -0.00169315 -0.00971685 0.00737485 0.00197101 
-0.00349213 0.00334417 0.00321291 0.000665237 -0.000706842 0.00179737 0.00221883 -0.000873585 -0.00177746 
1.05103e-05 -0.00157083 -0.00159385 -0.00228518 -0.00056542 -0.00188179 0.0024297 0.00186969 0.000391797 
-0.00301229 0.00341182 0.000470216 0.00147673 0.000902364 0.000144777 0.000270752 -0.00152442 -0.000526733 
0.00450754 -0.00801946 0.000108796 0.000259651 -0.0054862 -6.98833e-05 -0.000251402 0.00611466 0.000986109 
0.00140269 0.00143678 0.000816686 0.00132428 -0.000809567 -8.06384e-05 0.00245253 -0.0014606 -0.0005813 
0.000841318 -0.00511169 -0.000267275 -0.00119227 0.000876135 0.000529983 -0.00299334 0.00595819 0.000314107 
0.000184986 -0.00071232 -0.00172443 0.00096215 0.000446524 0.00246421 -0.000283522 0.000881391 0.00056879 
-0.000674476 0.000643932 0.000339331 -0.000255822 -0.000474314 -0.00126968 0.00108101 -0.00152218 -0.000665431 
0.00382458 -0.00612835 -0.00280856 4.96431e-05 0.000262609 -0.000428771 -0.00129585 0.00247139 0.00126733 
0.00133897 0.00179931 0.00453567 -0.000183809 0.00176864 0.00171647 -0.000463785 0.00181066 -0.000913815 
0.00105138 -0.00692753 -0.000490835 0.00399412 -0.00440332 -0.000571612 -0.00112392 0.00289058 0.00136927 
3.45675e-05 0.00076412 0.00217544 0.000161138 0.000975214 0.00493705 -0.000146848 0.0026849 -0.000883876 
0.00101173 -0.00129595 -0.0024605 0.0015915 -0.000402514 -0.00185585 -0.00297444 -0.00227404 -0.00157574 
-0.00160735 0.00123028 -0.00132596 -0.00129322 0.000506883 -6.54336e-05 -0.00183197 -0.00200617 0.000576583 
-0.00274867 -0.000274331 0.00196138 0.000795321 0.00273628 0.00108236 -0.00115991 0.00204034 -0.00113164 
0.00195896 -0.00151124 -0.000808018 0.00144864 -0.00431192 -0.00161635 -0.000806023 0.000435266 -0.00105501 
-0.00062393 -0.000451638 0.000263108 -0.000533988 0.00255685 0.000711111 -0.00248471 0.0210591 -4.81648e-05 
-0.000677716 -0.000253343 -0.000765246 0.00069743 -0.00378203 -0.00253681 -0.000295845 -0.000823188 -0.000432331 
-0.000852673 0.000143316 -1.14678e-05 0.000623802 0.0018343 0.000513066 -0.000546961 0.00114897 0.00131664 
-0.00329599 0.00559228 0.00164513 -0.000211117 -0.00194985 -0.00133478 0.000364331 -6.18626e-05 -0.00404799 
-0.000306757 0.000978376 -0.00158222 -0.00168647 -0.000157205 -0.00104849 -0.000547019 0.00171309 0.000364223 
-0.000315255 0.00125953 0.00147885 0.000723964 0.00144088 0.00244995 -0.000645884 0.00176864 0.00231334 
-0.000201224 -0.002073 -0.00232 7.39071e-05 -0.00464907 -0.000907559 -0.00204441 -0.00201656 -0.00216979 
0.000791127 0.000734839 -0.00204577 -0.00455885 0.00236835 0.000127007 -0.00141333 0.00055707 0.000508872 
-0.00181566 0.00259092 -0.00126397 0.000747928 0.000895225 -3.1637e-05 -0.000787636 0.000592471 0.00282743 
0.000731186 0.000806653 -0.00244981 -0.00184145 -0.00306073 -0.000208769 -0.00206485 0.000210199 -0.000408941 
-3.35559e-05 0.000859169 0.00212518 -0.00209455 -0.00380356 -0.000966145 -0.00151564 0.000610985 -0.000258457 
-0.00313422 0.00123937 0.000556089 -0.00395946 0.00339638 0.00177595 -0.00212923 0.000290414 0.00146106 
-0.000955251 -6.47012e-05 0.000337822 -0.00205171 -0.00268509 -0.00180688 -0.00240375 -0.0042559 0.000739547 
-0.00365934 0.00211333 -0.000631819 -0.00297362 0.00137218 -0.00146836 -0.00283812 0.00063917 0.00161082 
-0.00211199 0.00252814 0.000178682 -0.00118093 0.000465337 0.00104659 -0.00468579 -0.00391812 -0.000469441 
-0.0118302 -0.0045749 0.00132944 -0.00208562 0.00274592 0.000133067 -0.00143047 -0.000754331 0.000114133 
-0.00434607 -0.00264805 -9.10479e-06 -0.0029903 -0.00144195 0.000783447 -0.00212854 0.00164061 0.000407695 
-0.0011651 0.000872517 0.000565519 -0.00955076 0.00384211 0.00107831 -0.00373529 0.00033325 -0.000750523 
0.00159719 0.00276912 -0.000907165 -0.00117216 0.00484115 0.00107553 0.00939147 -0.00395354 -0.00674379 
-0.0057188 0.00472004 0.00685437 0.00987156 -0.00397182 0.00730332 0.00795927 0.00220157 0.00403527 
0.00353351 -0.00341844 0.00213769 -0.000269194 0.00148511 0.00125116 -0.00130236 0.00114673 -0.00482952 
0.00297444 0.00362474 -0.00350718 0.00244348 0.00243516 -0.0029764 0.00195041 -0.00692811 -0.000436961 
-0.00332362 0.000606483 0.00117945 -0.00162849 0.000513787 0.00521366 -0.000964272 0.00510973 -0.00574403 
0.00393536 -0.00465819 -0.00208496 -0.00265492 -0.000627314 -0.000537462 -0.000236444 -0.001427 -0.00349945 
-0.00123928 0.00110153 0.00114766 -0.000732141 0.00416984 0.00113704 -0.000497965 0.00291844 0.00252455 
-0.00298467 0.00253334 -0.00327398 -0.00385401 0.00502272 -0.00359355 -0.00282029 0.000232045 -0.00437633 
-0.00306094 -0.00268848 -0.0028826 -0.00353892 0.00199445 -0.000607339 -0.00504484 0.00244468 0.00166243 
-0.000838657 0.0014922 0.00203853 -0.000197383 0.00179405 0.0029637 -0.00297891 0.00168864 0.00265552 
-0.00135781 0.000984051 0.00175929 0.00514116 0.00184562 -0.00508262 0.0101882 0.00676123 0.00449718 
0.00225905 -0.00324497 0.00762393 0.00193793 0.00193068 -0.00527991 0.00238059 0.00283774 0.00355002 
0.00587751 0.0179731 0.0105548 -0.00370798 0.00343096 0.00675595 0.0235956 -0.00633369 0.000719748 
0.00367134 0.00218155 0.00604174 0.00886866 -0.00411487 0.000326794 0.00333509 -0.00250891 0.00121809 
0.00349281 0.0073311 0.00114444 0.00178612 0.00297868 0.00798042 -0.00734226 0.0149018 0.00289687 
-0.0022746 -0.00188537 -7.57766e-05 0.00317856 -0.00605753 -0.00340158 -0.0032852 -0.0018625 0.0104857 
0.000451785 0.00522436 0.00261018 0.00333415 0.000672516 0.000463652 0.00381986 0.00328831 0.00241917 
0.00225089 0.00176314 -0.00281345 0.00375414 -0.00166598 0.00130412 0.00302139 -0.00548845 0.00053381 
0.000118958 0.00180631 0.00368859 -0.00192108 0.00397845 0.00376658 -0.00112165 0.0043461 0.000705301 
-0.000541129 -0.00626137 0.00142186 0.00210299 -0.0041752 0.000807973 -0.00272952 -0.00328648 9.88415e-05 
-0.00270521 0.00100854 0.00392091 0.000698357 0.00215222 0.0112625 0.0061262 0.00404704 0.00433792 
0.00463316 0.00519886 0.00902667 -0.00127234 0.0059575 -0.00937549 -0.00338378 0.00368239 -0.00547147 
0.000845503 -0.00339764 0.00158721 -0.00173265 -0.00191252 0.0116576 0.000915562 0.00433786 -0.00122636 
0.00100304 0.00342188 -0.00299454 0.002182 -0.00476373 -0.00262556 -0.00269948 0.00100272 -0.000309354 
0.000533434 0.00622073 0.00552258 0.00177942 0.00413996 0.000722607 0.00154485 0.00500417 -0.00656727 
0.0025147 -0.00857591 -0.0141596 -0.00359152 -0.00455501 -0.00256308 -0.00341734 0.000807596 0.000987076 
-0.0037085 0.00184777 0.000971112 -7.98074e-05 0.000970085 -0.000299247 0.000253494 0.0068267 -0.00176827 
0.00223084 0.00403268 -0.00418026 0.000342994 -0.00108209 -0.00099551 -0.00584335 -0.000383815 -0.00128283 
-0.00219013 0.00188386 -0.00497647 -0.00025497 0.00239763 -0.000254543 6.91754e-05 0.000194581 0.00092081 
-0.000508402 0.00215682 -0.000442018 0.00187393 0.000125724 -0.00411075 0.003359 0.00437833 -0.00665615 
-0.00126023 0.00386254 -0.00272248 -0.000680068 0.000121321 0.000514825 0.000663215 0.00351923 0.00193288 
-6.53572e-05 0.00254967 0.00252292 -0.000309612 0.000747028 -0.00189677 -0.000789081 -0.0016462 -0.00565406 
-0.00192048 0.000984162 -0.00339883 -0.0008491 0.00164808 -0.00319046 -0.000928174 0.00285979 -0.00196162 
0.00102881 0.00197711 0.00381042 0.000609312 0.00198547 0.0051857 -7.28631e-05 0.00440275 0.00649788 
-0.00147688 0.00393985 -0.00616085 -0.00727312 -0.00514154 -0.00136144 0.000283581 0.0047774 0.0021817 
-0.00119635 0.000474107 -0.000191575 0.000167714 0.000526855 0.00481572 -0.000758781 0.00269115 0.00605731 
-0.00115133 -8.45811e-05 -0.0046408 -0.00290237 -0.00174484 -0.00336489 -0.00398745 -0.00113715 -0.00695122 
-0.00078863 0.000642187 0.00129437 -0.00162961 -0.00159367 -0.00175117 -0.00348961 -0.01117 0.00037969 
-0.00316319 0.00277443 -0.00112821 -0.00236149 0.00134362 0.00166552 -0.00802895 0.00091877 0.00517459 
-0.00231891 0.000756316 0.0019378 -0.00348068 -0.00187278 -0.00378631 -0.00439465 -0.00941259 0.00103806 
-0.0114453 0.00872168 -0.0159331 -0.00722411 0.00227973 0.00163691 -0.0158215 0.0122604 -0.00451607 
-0.00800137 0.0059744 -0.00107646 -0.00301387 0.00170178 0.00158583 -0.0082297 0.00116144 0.000522147 
-0.00850047 0.00205954 0.0028212 -0.00595098 0.000680038 -0.000181634 -0.00394237 0.00163128 0.00170572 
0.00308228 0.00133114 0.00762705 -0.00819336 0.00301732 0.00444917 -0.000194605 -0.000119449 0.00272677 