# vtk DataFile Version 4.0
Generated by LIGGGHTS
ASCII
DATASET POLYDATA
POINTS 890 float
0.00187086 -0.0460799 0.00393401 -0.0191249 -0.0418893 0.00389626 -0.011612 -0.0445442 0.00393424 
0.0104293 -0.044825 0.00393554 0.0194022 -0.0417465 0.00395427 -0.0260961 -0.0379432 0.00390617 
-0.0131041 -0.0367218 0.00390418 -0.00349415 -0.0391641 0.00389363 0.00440039 -0.0386463 0.00390636 
0.0121589 -0.0370312 0.00394917 0.0263131 -0.0377485 0.00395337 -0.032206 -0.0328917 0.00394971 
-0.0199939 -0.0328584 0.00390529 -0.00680729 -0.0318974 0.00396338 0.00680367 -0.0311406 0.00396128 
0.0193803 -0.0337889 0.00389947 0.0324645 -0.0326096 0.0039148 -0.0338257 -0.0251206 0.00391792 
-0.0258112 -0.0274112 0.00390874 -0.0133698 -0.0273583 0.00394401 -0.00105029 -0.026421 0.00383752 
0.0138657 -0.0275271 0.00390225 0.0376268 -0.0265649 0.00390555 -0.0408146 -0.0213126 0.00391979 
-0.0201749 -0.0217859 0.00396022 -0.00775847 -0.0216811 0.00390726 0.00623609 -0.0232652 0.00395724 
0.022135 -0.0230714 0.0039299 0.0299967 -0.0243074 0.00392063 -0.0279391 -0.0197709 0.00391629 
-0.013995 -0.0167643 0.00396989 -0.000229923 -0.0185289 0.00394298 0.00706793 -0.0154244 0.00395258 
0.0142978 -0.0188708 0.00398093 0.0281802 -0.0165984 0.00479532 0.0357491 -0.0188438 0.00392651 
0.0431692 -0.0159565 0.00396514 -0.0380729 -0.0138442 0.00388044 -0.0302684 -0.0121471 0.00398094 
-0.0223124 -0.0141203 0.0039681 -0.00567136 -0.0127413 0.00390229 0.013476 -0.0108067 0.00387143 
0.0207246 -0.0140271 0.00388559 0.0349574 -0.0109824 0.00398573 -0.0449799 -0.00995247 0.00396409 
-0.0237517 -0.00630672 0.00389366 -0.0146965 -0.00885119 0.0039037 0.00164658 -0.00960737 0.00392298 
0.0198748 -0.00611288 0.00393688 0.0273617 -0.00871584 0.00390867 0.0452837 -0.0082555 0.00392301 
-0.0393924 -0.00430313 0.00394842 -0.0314151 -0.00425698 0.00393509 -0.0175064 -0.00138595 0.00395186 
-0.00873054 -0.00363514 0.00396051 -0.00162974 -4.99704e-05 0.00394188 0.00842138 -0.00355174 0.00388219 
0.0284226 -0.000835891 0.00392616 0.0385864 -0.00395705 0.00391916 0.0457876 0.000132851 0.00398123 
-0.0460724 0.00162632 0.00387105 -0.0316938 0.00365932 0.00394526 -0.0237655 0.00470038 0.00392027 
-0.00829911 0.00431158 0.00392576 0.00568213 0.00388866 0.00394776 0.0220173 0.0038698 0.00390455 
-0.0450453 0.00949804 0.0039119 -0.0159753 0.00641441 0.00394419 -0.00118913 0.00789617 0.00391672 
0.0128718 0.00754987 0.00390421 0.029392 0.0070917 0.00390518 0.0388873 0.00652301 0.00394906 
-0.0370968 0.00999885 0.00393769 -0.0292241 0.0111977 0.00394643 -0.0213454 0.0123081 0.00394167 
-0.0102155 0.0120007 0.00387562 0.0061722 0.0118335 0.00394611 0.0198043 0.0114827 0.00390992 
0.0271014 0.0146931 0.0039437 0.0349967 0.0135882 0.00388461 0.0443716 0.0122947 0.00393981 
-0.042738 0.0171182 0.00393692 -0.0347997 0.0175571 0.00392615 -0.0262483 0.0185748 0.00390929 
-0.0156046 0.0178327 0.00396625 -0.00660437 0.019039 0.00390109 0.00545277 0.0197729 0.00392265 
0.0131022 0.0157615 0.0038935 0.0207484 0.0195052 0.00394248 0.0415785 0.0197295 0.00394059 
-0.03904 0.0243365 0.00396259 -0.0204716 0.0241211 0.00391597 -0.000892718 0.0245927 0.00395196 
0.0283837 0.0225096 0.00391193 -0.0263974 0.0295389 0.00389991 -0.0133332 0.0276787 0.00391471 
0.00807813 0.0272653 0.00393041 0.0162963 0.0262522 0.00390276 0.0250694 0.0297174 0.00387212 
0.0375775 0.0265938 0.0039103 -0.0342884 0.0307638 0.00392537 -0.0192394 0.0329595 0.00386667 
-0.00609146 0.0308436 0.00388077 0.0023625 0.0328386 0.00395761 0.0104328 0.0348699 0.00397279 
0.0183342 0.0339404 0.00397886 0.0324512 0.0326634 0.00396178 -0.0267382 0.0374771 0.00398058 
-0.0117758 0.0364023 0.00395295 -0.00344719 0.0383283 0.00385328 0.0263027 0.0377477 0.00393984 
-0.0198626 0.0415005 0.00398591 -0.0124159 0.044337 0.00395768 0.00475261 0.0404369 0.00392102 
0.0114903 0.0445943 0.00390759 0.0192461 0.0418318 0.00393815 -0.000889424 0.0460341 0.00396001 
-0.00490672 -0.0458332 0.0079881 -0.00859553 -0.0391018 0.00989573 -0.0251514 -0.0325004 0.00991758 
7.91377e-05 -0.0331739 0.007761 -0.0190509 -0.0273669 0.00950734 -0.00610986 -0.0265984 0.00987465 
0.0252304 -0.0296854 0.0072029 -0.0127854 -0.0223762 0.0101438 0.0406615 -0.0217302 0.00939432 
-0.0430966 -0.0162112 0.00955805 -0.0342139 -0.0187557 0.00871908 -0.0353292 -0.00869399 0.00918992 
-0.00333478 -0.00635593 0.00914957 0.00767903 -0.00941808 0.0090769 -0.0458698 -0.00410979 0.009283 
-0.0254964 -0.000822823 0.00933701 0.00332512 -0.00209995 0.00977315 -0.0389986 0.00299849 0.00703363 
0.0152291 0.000125112 0.00547144 0.0401393 0.00116657 0.00970275 0.0455537 0.00692582 0.00966632 
-0.01571 0.012043 0.00953548 -0.0211951 0.0177325 0.00993254 -0.00036244 0.015207 0.00691371 
-0.0312491 0.0240139 0.00670533 -0.0153935 0.0230648 0.00997094 -0.00778096 0.0249663 0.00896105 
0.0118142 0.0218555 0.00879027 0.0348056 0.0204146 0.00809125 0.029731 0.0275071 0.00991232 
-0.00639965 0.0434781 0.00908403 -0.00882286 -0.0452506 0.0148679 0.00619964 -0.0456239 0.0106063 
-0.0226708 -0.0400441 0.0107179 -0.0154197 -0.043351 0.0108015 0.000165759 -0.0404293 0.0108587 
0.0143316 -0.0415925 0.0100768 0.00784769 -0.036732 0.0107383 0.0229005 -0.0398279 0.0108671 
0.0295929 -0.0352852 0.0107789 -0.0336404 -0.0314516 0.011635 -0.0186361 -0.0341068 0.0142208 
-0.0120476 -0.0319133 0.0103467 -0.00504944 -0.033274 0.0139307 0.0150872 -0.0335882 0.0105489 
0.0220298 -0.0322945 0.0141769 -0.0384683 -0.0253142 0.0103398 0.00572721 -0.0290812 0.0115681 
0.0185708 -0.0264539 0.0101566 0.0281551 -0.0271218 0.0140924 0.0352011 -0.0296243 0.0107882 
-0.0294063 -0.024825 0.0105042 -0.022926 -0.0225038 0.0144262 0.000943821 -0.0228321 0.0105559 
0.0113451 -0.0231979 0.0100521 0.032841 -0.0216096 0.0108194 -0.0265639 -0.0163408 0.0109022 
-0.0186836 -0.0171208 0.0104019 -0.00507595 -0.0176164 0.0101684 0.00241969 -0.0150427 0.0109446 
0.0102554 -0.0158653 0.0128976 0.0200537 -0.0186685 0.0102202 0.0271886 -0.0164192 0.0129727 
-0.0449509 -0.0101499 0.0143191 -0.0100112 -0.0105169 0.0100973 0.0230332 -0.0101222 0.0103842 
0.0369831 -0.0148109 0.010736 0.0444553 -0.0121047 0.0108192 -0.0275483 -0.00844842 0.0105521 
-0.0197005 -0.00927582 0.0099922 0.0152648 -0.00898669 0.0113199 0.0309387 -0.00967706 0.0109207 
0.0384225 -0.00698356 0.0113201 -0.0395963 -0.00425969 0.014132 -0.0332366 -0.000668833 0.010991 
-0.0140736 -0.00370023 0.0107346 0.0101163 -0.00342034 0.0136854 0.0208446 -0.00202436 0.0106682 
0.0326377 -0.0016237 0.0105809 0.045866 -0.00423308 0.0107315 -0.0392526 0.00365173 0.0149297 
-0.0185703 0.00288995 0.0106097 -0.00724519 0.000368801 0.0106928 0.0102868 0.00383305 0.0104418 
0.026556 0.00348213 0.010353 -0.0457282 0.00552488 0.0107671 -0.0317103 0.00749769 0.0108996 
-0.0238406 0.00886842 0.0106698 -0.0118715 0.00623303 0.0133314 0.00342403 0.0079854 0.0103815 
0.0177647 0.00656118 0.0100775 0.0340462 0.00617877 0.0102454 -0.0441715 0.0133066 0.0107858 
-0.0363654 0.01392 0.0108296 -0.00570379 0.0100991 0.0100538 -0.000545187 0.0139189 0.0147552 
0.0109137 0.0117324 0.0103514 0.0242964 0.0110959 0.0104363 0.0317553 0.0137128 0.0110834 
0.0394705 0.0120128 0.0102126 -0.0286112 0.0152136 0.0107635 -0.00866243 0.017381 0.0114143 
0.0057076 0.0175685 0.011516 0.0177879 0.0157059 0.0102971 0.0258534 0.0189717 0.0105691 
0.0417506 0.019481 0.0118693 -0.0410613 0.0207599 0.0107907 -0.0335312 0.0208251 0.0135433 
-0.00130273 0.0213717 0.0118617 0.0193509 0.0235024 0.0106631 -0.0369224 0.0275527 0.0109541 
-0.0244446 0.0251879 0.0106592 -0.00147652 0.0295705 0.0101143 0.00533523 0.0257209 0.0112411 
0.0125544 0.0296909 0.0100114 0.037402 0.0269712 0.0118062 -0.0316105 0.0334769 0.0108838 
-0.023701 0.0331336 0.0103913 -0.0127952 0.0303023 0.0119868 0.0226362 0.0314412 0.011142 
-0.0167099 0.0369436 0.0101533 -0.00688473 0.0353978 0.0103586 0.00074967 0.0387022 0.0105011 
0.00868901 0.0375468 0.011284 0.0164058 0.0359483 0.0130035 0.0228909 0.0399514 0.0107753 
0.0295065 0.0353904 0.0108337 -0.0137155 0.0440027 0.0120587 0.0153766 0.0434296 0.0106791 
-0.000135432 0.0460901 0.0131897 0.00741833 0.0454087 0.0107095 0.000657677 -0.0461027 0.0163295 
-0.0226492 -0.0401066 0.0186177 -0.015471 -0.0433908 0.0187553 0.00685988 -0.0412417 0.0171935 
0.0142801 -0.0438224 0.0176746 -0.028815 -0.0359506 0.0160013 -0.0115634 -0.0367834 0.0167923 
-0.00400208 -0.0399282 0.0181423 0.0157277 -0.0359854 0.0181104 0.0266388 -0.0376407 0.0177084 
0.00238326 -0.0348045 0.0161282 0.0327169 -0.0324557 0.0177645 -0.0371716 -0.0271193 0.0179849 
-0.0285307 -0.0267362 0.0181753 -0.0158186 -0.0259478 0.0165919 -0.00495021 -0.0262339 0.0176756 
0.0119688 -0.0291912 0.0164538 0.0385925 -0.0250344 0.0163661 -0.0412573 -0.0205348 0.015994 
-0.033326 -0.020295 0.0164395 0.00648413 -0.0220509 0.0161944 0.0141649 -0.0217675 0.0182298 
0.0218073 -0.0230932 0.0165662 -0.0176623 -0.0184534 0.0187672 -0.0107841 -0.0162688 0.0154937 
-0.00145918 -0.019125 0.0171098 0.0172612 -0.0146728 0.0164474 0.0346706 -0.0181276 0.0177195 
0.0424434 -0.0177861 0.016003 -0.0378185 -0.0134919 0.0149796 -0.0302074 -0.0125891 0.0168373 
-0.0222804 -0.0122648 0.0168814 -0.00342888 -0.0116003 0.0151201 0.00491852 -0.014697 0.0186993 
0.0447847 -0.0106922 0.0186576 -0.0354596 -0.00756601 0.020042 -0.0148527 -0.00946789 0.0162406 
0.00349125 -0.00763418 0.015489 0.011199 -0.00986175 0.0182325 0.0236703 -0.00885822 0.0181608 
0.0331932 -0.00565315 0.0173732 -0.0460734 -0.000217833 0.0162464 -0.0290926 -0.00393445 0.0169062 
-0.0212503 -0.00367304 0.0154133 -0.0137166 -0.00191954 0.0184865 -0.00274239 -0.00289598 0.0163196 
0.017191 -0.00428191 0.0173581 0.0264048 -0.00165573 0.0163363 0.0387862 -2.07465e-05 0.0173996 
0.0460223 -0.00287034 0.0185369 -0.0268357 0.00359926 0.0158198 -0.0198779 0.00294482 0.0196098 
-0.00232949 0.00492301 0.015003 0.00506418 0.00224268 0.0161649 0.0123332 0.00166097 0.0193574 
0.0200939 0.00313824 0.0168633 0.0457385 0.00498496 0.0173824 -0.0450247 0.00945163 0.0176776 
[...]
POINT_DATA 890
FIELD FieldData 9
id 1 890 int
328 395 635 139 347 203 196 236 800 
586 677 582 256 398 603 449 396 177 
871 806 739 153 532 627 810 477 860 
28 388 471 90 611 521 602 102 671 
169 351 190 666 39 145 249 120 740 
876 755 634 176 134 46 275 731 62 
11 830 119 833 385 873 329 189 702 
199 506 483 675 82 197 319 738 538 
307 654 657 473 159 274 450 327 174 
2 10 276 575 787 426 534 14 858 
138 180 432 531 418 224 278 724 842 
430 662 462 35 469 408 298 326 53 
89 349 706 4 742 641 416 546 859 
650 101 713 883 699 85 216 630 601 
192 874 323 333 696 230 520 625 401 
265 244 461 227 804 698 67 116 594 
118 390 440 242 886 37 596 231 376 
179 613 17 65 598 309 571 80 162 
284 97 52 692 429 206 111 59 66 
198 200 86 142 664 413 649 779 667 
674 33 879 341 884 411 759 553 862 
535 498 682 563 105 259 44 257 422 
250 659 530 570 849 50 708 182 482 
827 217 632 175 96 766 363 195 809 
140 653 317 816 228 689 672 508 16 
854 316 836 19 150 478 767 748 222 
869 123 405 680 795 41 258 38 737 
289 338 207 687 733 392 608 851 690 
409 776 467 778 218 167 358 526 794 
184 618 780 544 799 523 622 888 758 
221 268 393 70 515 103 386 113 76 
488 55 354 668 21 636 855 322 252 
215 141 599 348 253 588 366 606 628 
676 295 5 239 367 514 568 821 121 
18 350 679 541 262 383 797 619 375 
694 64 808 273 313 77 171 765 460 
229 796 771 715 431 47 503 791 269 
489 501 438 751 364 7 377 314 63 
726 707 623 399 420 519 365 652 545 
812 382 880 743 337 149 504 673 126 
110 243 56 612 640 310 318 824 108 
479 499 404 864 370 286 782 517 240 
474 651 343 848 237 30 480 729 557 
414 576 339 94 223 133 99 406 645 
585 292 811 464 448 749 847 695 397 
251 104 505 456 655 315 311 29 609 
22 308 92 558 281 136 331 446 378 
468 166 129 455 380 574 578 547 254 
727 844 597 114 642 125 881 266 73 
444 725 248 723 42 870 419 802 722 
290 721 669 320 435 638 75 187 486 
495 688 451 291 417 700 373 271 803 
424 757 280 701 332 336 829 801 616 
875 160 507 878 407 205 736 882 605 
433 445 164 720 368 260 246 127 683 
87 402 132 465 12 850 463 852 107 
522 660 510 188 761 161 838 219 746 
579 115 122 34 793 615 572 705 648 
428 334 381 714 285 128 775 421 58 
837 494 210 610 226 528 362 559 61 
691 518 734 845 744 154 524 148 91 
208 458 71 584 484 403 466 556 670 
491 637 36 840 457 26 352 437 772 
785 157 369 345 856 297 57 173 550 
529 83 374 43 452 853 644 817 728 
213 581 647 68 423 885 562 475 788 
335 300 857 537 209 25 1 470 212 
798 288 681 72 360 88 186 357 770 
502 106 711 747 492 626 600 124 6 
569 774 454 69 54 865 867 513 344 
321 325 819 294 389 684 245 211 685 
567 697 777 191 283 704 735 591 202 
573 84 604 45 193 490 117 394 359 
238 493 340 552 263 78 346 815 225 
629 178 826 3 643 877 439 589 220 
40 8 272 306 442 583 20 590 686 
789 9 436 481 716 756 564 15 863 
807 633 23 305 264 112 384 233 561 
718 754 790 303 820 500 764 98 768 
784 516 255 781 663 425 509 361 678 
580 709 302 282 593 301 342 732 135 
485 511 496 27 866 527 717 412 656 
146 100 889 786 170 745 24 312 763 
158 371 277 299 551 201 540 165 555 
621 130 441 93 81 560 400 247 512 
487 324 658 270 459 773 156 565 805 
261 443 476 753 887 143 631 241 304 
163 147 769 391 330 355 822 434 410 
533 665 646 185 427 741 279 183 839 
543 453 750 577 51 542 155 614 831 
137 843 592 214 235 296 287 752 539 
234 703 814 549 60 661 447 834 168 
624 536 760 566 181 109 823 693 172 
356 841 890 415 144 79 548 204 472 
825 194 49 131 379 267 587 719 828 
353 31 783 232 712 832 595 872 497 
74 868 293 607 151 152 372 861 95 
32 762 13 710 818 639 813 48 792 
835 617 387 525 620 730 846 554 
type 1 890 int
1 1 1 1 1 1 1 1 1 
1 1 1 1 1 1 1 1 1 
1 1 1 1 1 1 1 1 1 
1 1 1 1 1 1 1 1 1 
1 1 1 1 1 1 1 1 1 
1 1 1 1 1 1 1 1 1 
1 1 1 1 1 1 1 1 1 
1 1 1 1 1 1 1 1 1 
1 1 1 1 1 1 1 1 1 
1 1 1 1 1 1 1 1 1 
1 1 1 1 1 1 1 1 1 
1 1 1 1 1 1 1 1 1 
1 1 1 1 1 1 1 1 1 
1 1 1 1 1 1 1 1 1 
1 1 1 1 1 1 1 1 1 
1 1 1 1 1 1 1 1 1 
1 1 1 1 1 1 1 1 1 
1 1 1 1 1 1 1 1 1 
1 1 1 1 1 1 1 1 1 
1 1 1 1 1 1 1 1 1 
1 1 1 1 1 1 1 1 1 
1 1 1 1 1 1 1 1 1 
1 1 1 1 1 1 1 1 1 
1 1 1 1 1 1 1 1 1 
1 1 1 1 1 1 1 1 1 
1 1 1 1 1 1 1 1 1 
1 1 1 1 1 1 1 1 1 
1 1 1 1 1 1 1 1 1 
1 1 1 1 1 1 1 1 1 
1 1 1 1 1 1 1 1 1 
1 1 1 1 1 1 1 1 1 
1 1 1 1 1 1 1 1 1 
1 1 1 1 1 1 1 1 1 
1 1 1 1 1 1 1 1 1 
1 1 1 1 1 1 1 1 1 
1 1 1 1 1 1 1 1 1 
1 1 1 1 1 1 1 1 1 
1 1 1 1 1 1 1 1 1 
1 1 1 1 1 1 1 1 1 
1 1 1 1 1 1 1 1 1 
1 1 1 1 1 1 1 1 1 
1 1 1 1 1 1 1 1 1 
1 1 1 1 1 1 1 1 1 
1 1 1 1 1 1 1 1 1 
1 1 1 1 1 1 1 1 1 
1 1 1 1 1 1 1 1 1 
1 1 1 1 1 1 1 1 1 
1 1 1 1 1 1 1 1 1 
1 1 1 1 1 1 1 1 1 
1 1 1 1 1 1 1 1 1 
1 1 1 1 1 1 1 1 1 
1 1 1 1 1 1 1 1 1 
1 1 1 1 1 1 1 1 1 
1 1 1 1 1 1 1 1 1 
1 1 1 1 1 1 1 1 1 
1 1 1 1 1 1 1 1 1 
1 1 1 1 1 1 1 1 1 
1 1 1 1 1 1 1 1 1 
1 1 1 1 1 1 1 1 1 
1 1 1 1 1 1 1 1 1 
1 1 1 1 1 1 1 1 1 
1 1 1 1 1 1 1 1 1 
1 1 1 1 1 1 1 1 1 
1 1 1 1 1 1 1 1 1 
1 1 1 1 1 1 1 1 1 
1 1 1 1 1 1 1 1 1 
1 1 1 1 1 1 1 1 1 
1 1 1 1 1 1 1 1 1 
1 1 1 1 1 1 1 1 1 
1 1 1 1 1 1 1 1 1 
1 1 1 1 1 1 1 1 1 
1 1 1 1 1 1 1 1 1 
1 1 1 1 1 1 1 1 1 
1 1 1 1 1 1 1 1 1 
1 1 1 1 1 1 1 1 1 
1 1 1 1 1 1 1 1 1 
1 1 1 1 1 1 1 1 1 
1 1 1 1 1 1 1 1 1 
1 1 1 1 1 1 1 1 1 
1 1 1 1 1 1 1 1 1 
1 1 1 1 1 1 1 1 1 
1 1 1 1 1 1 1 1 1 
1 1 1 1 1 1 1 1 1 
1 1 1 1 1 1 1 1 1 
1 1 1 1 1 1 1 1 1 
1 1 1 1 1 1 1 1 1 
1 1 1 1 1 1 1 1 1 
1 1 1 1 1 1 1 1 1 
1 1 1 1 1 1 1 1 1 
1 1 1 1 1 1 1 1 1 
1 1 1 1 1 1 1 1 1 
1 1 1 1 1 1 1 1 1 
1 1 1 1 1 1 1 1 1 
1 1 1 1 1 1 1 1 1 
1 1 1 1 1 1 1 1 1 
1 1 1 1 1 1 1 1 1 
1 1 1 1 1 1 1 1 1 
1 1 1 1 1 1 1 1 1 
1 1 1 1 1 1 1 1 
i 3 890 int
0 0 0 0 0 0 0 0 0 
0 0 0 0 0 0 0 0 0 
0 0 0 0 0 0 0 0 0 
0 0 0 0 0 0 0 0 0 
0 0 0 0 0 0 0 0 0 
0 0 0 0 0 0 0 0 0 
0 0 0 0 0 0 0 0 0 
0 0 0 0 0 0 0 0 0 
0 0 0 0 0 0 0 0 0 
0 0 0 0 0 0 0 0 0 
0 0 0 0 0 0 0 0 0 
0 0 0 0 0 0 0 0 0 
0 0 0 0 0 0 0 0 0 
0 0 0 0 0 0 0 0 0 
0 0 0 0 0 0 0 0 0 
0 0 0 0 0 0 0 0 0 
0 0 0 0 0 0 0 0 0 
0 0 0 0 0 0 0 0 0 
0 0 0 0 0 0 0 0 0 
0 0 0 0 0 0 0 0 0 
0 0 0 0 0 0 0 0 0 
0 0 0 0 0 0 0 0 0 
0 0 0 0 0 0 0 0 0 
0 0 0 0 0 0 0 0 0 
0 0 0 0 0 0 0 0 0 
0 0 0 0 0 0 0 0 0 
0 0 0 0 0 0 0 0 0 
0 0 0 0 0 0 0 0 0 
0 0 0 0 0 0 0 0 0 
0 0 0 0 0 0 0 0 0 
0 0 0 0 0 0 0 0 0 
0 0 0 0 0 0 0 0 0 
0 0 0 0 0 0 0 0 0 
0 0 0 0 0 0 0 0 0 
0 0 0 0 0 0 0 0 0 
0 0 0 0 0 0 0 0 0 
0 0 0 0 0 0 0 0 0 
0 0 0 0 0 0 0 0 0 
0 0 0 0 0 0 0 0 0 
0 0 0 0 0 0 0 0 0 
0 0 0 0 0 0 0 0 0 
0 0 0 0 0 0 0 0 0 
0 0 0 0 0 0 0 0 0 
0 0 0 0 0 0 0 0 0 
0 0 0 0 0 0 0 0 0 
0 0 0 0 0 0 0 0 0 
0 0 0 0 0 0 0 0 0 
0 0 0 0 0 0 0 0 0 
0 0 0 0 0 0 0 0 0 
0 0 0 0 0 0 0 0 0 
0 0 0 0 0 0 0 0 0 
0 0 0 0 0 0 0 0 0 
0 0 0 0 0 0 0 0 0 
0 0 0 0 0 0 0 0 0 
0 0 0 0 0 0 0 0 0 
0 0 0 0 0 0 0 0 0 
0 0 0 0 0 0 0 0 0 
0 0 0 0 0 0 0 0 0 
0 0 0 0 0 0 0 0 0 
0 0 0 0 0 0 0 0 0 
0 0 0 0 0 0 0 0 0 
0 0 0 0 0 0 0 0 0 
0 0 0 0 0 0 0 0 0 
0 0 0 0 0 0 0 0 0 
0 0 0 0 0 0 0 0 0 
0 0 0 0 0 0 0 0 0 
0 0 0 0 0 0 0 0 0 
0 0 0 0 0 0 0 0 0 
0 0 0 0 0 0 0 0 0 
0 0 0 0 0 0 0 0 0 
0 0 0 0 0 0 0 0 0 
0 0 0 0 0 0 0 0 0 
0 0 0 0 0 0 0 0 0 
0 0 0 0 0 0 0 0 0 
0 0 0 0 0 0 0 0 0 
0 0 0 0 0 0 0 0 0 
0 0 0 0 0 0 0 0 0 
0 0 0 0 0 0 0 0 0 
0 0 0 0 0 0 0 0 0 
0 0 0 0 0 0 0 0 0 
0 0 0 0 0 0 0 0 0 
0 0 0 0 0 0 0 0 0 
0 0 0 0 0 0 0 0 0 
0 0 0 0 0 0 0 0 0 
0 0 0 0 0 0 0 0 0 
0 0 0 0 0 0 0 0 0 
0 0 0 0 0 0 0 0 0 
0 0 0 0 0 0 0 0 0 
0 0 0 0 0 0 0 0 0 
0 0 0 0 0 0 0 0 0 
0 0 0 0 0 0 0 0 0 
0 0 0 0 0 0 0 0 0 
0 0 0 0 0 0 0 0 0 
0 0 0 0 0 0 0 0 0 
0 0 0 0 0 0 0 0 0 
0 0 0 0 0 0 0 0 0 
0 0 0 0 0 0 0 0 0 
0 0 0 0 0 0 0 0 0 
0 0 0 0 0 0 0 0 0 
0 0 0 0 0 0 0 0 0 
0 0 0 0 0 0 0 0 0 
0 0 0 0 0 0 0 0 0 
0 0 0 0 0 0 0 0 0 
0 0 0 0 0 0 0 0 0 
0 0 0 0 0 0 0 0 0 
0 0 0 0 0 0 0 0 0 
0 0 0 0 0 0 0 0 0 
0 0 0 0 0 0 0 0 0 
0 0 0 0 0 0 0 0 0 
0 0 0 0 0 0 0 0 0 
0 0 0 0 0 0 0 0 0 
0 0 0 0 0 0 0 0 0 
0 0 0 0 0 0 0 0 0 
0 0 0 0 0 0 0 0 0 
0 0 0 0 0 0 0 0 0 
0 0 0 0 0 0 0 0 0 
0 0 0 0 0 0 0 0 0 
0 0 0 0 0 0 0 0 0 
0 0 0 0 0 0 0 0 0 
0 0 0 0 0 0 0 0 0 
0 0 0 0 0 0 0 0 0 
0 0 0 0 0 0 0 0 0 
0 0 0 0 0 0 0 0 0 
0 0 0 0 0 0 0 0 0 
0 0 0 0 0 0 0 0 0 
0 0 0 0 0 0 0 0 0 
0 0 0 0 0 0 0 0 0 
0 0 0 0 0 0 0 0 0 
0 0 0 0 0 0 0 0 0 
0 0 0 0 0 0 0 0 0 
0 0 0 0 0 0 0 0 0 
0 0 0 0 0 0 0 0 0 
0 0 0 0 0 0 0 0 0 
0 0 0 0 0 0 0 0 0 
0 0 0 0 0 0 0 0 0 
0 0 0 0 0 0 0 0 0 
0 0 0 0 0 0 0 0 0 
0 0 0 0 0 0 0 0 0 
0 0 0 0 0 0 0 0 0 
0 0 0 0 0 0 0 0 0 
0 0 0 0 0 0 0 0 0 
0 0 0 0 0 0 0 0 0 
0 0 0 0 0 0 0 0 0 
0 0 0 0 0 0 0 0 0 
0 0 0 0 0 0 0 0 0 
0 0 0 0 0 0 0 0 0 
0 0 0 0 0 0 0 0 0 
0 0 0 0 0 0 0 0 0 
0 0 0 0 0 0 0 0 0 
0 0 0 0 0 0 0 0 0 
0 0 0 0 0 0 0 0 0 
0 0 0 0 0 0 0 0 0 
0 0 0 0 0 0 0 0 0 
0 0 0 0 0 0 0 0 0 
0 0 0 0 0 0 0 0 0 
0 0 0 0 0 0 0 0 0 
0 0 0 0 0 0 0 0 0 
0 0 0 0 0 0 0 0 0 
0 0 0 0 0 0 0 0 0 
0 0 0 0 0 0 0 0 0 
0 0 0 0 0 0 0 0 0 
0 0 0 0 0 0 0 0 0 
0 0 0 0 0 0 0 0 0 
0 0 0 0 0 0 0 0 0 
0 0 0 0 0 0 0 0 0 
0 0 0 0 0 0 0 0 0 
0 0 0 0 0 0 0 0 0 
0 0 0 0 0 0 0 0 0 
0 0 0 0 0 0 0 0 0 
0 0 0 0 0 0 0 0 0 
0 0 0 0 0 0 0 0 0 
0 0 0 0 0 0 0 0 0 
0 0 0 0 0 0 0 0 0 
0 0 0 0 0 0 0 0 0 
0 0 0 0 0 0 0 0 0 
0 0 0 0 0 0 0 0 0 
0 0 0 0 0 0 0 0 0 
0 0 0 0 0 0 0 0 0 
0 0 0 0 0 0 0 0 0 
0 0 0 0 0 0 0 0 0 
0 0 0 0 0 0 0 0 0 
0 0 0 0 0 0 0 0 0 
0 0 0 0 0 0 0 0 0 
0 0 0 0 0 0 0 0 0 
0 0 0 0 0 0 0 0 0 
0 0 0 0 0 0 0 0 0 
0 0 0 0 0 0 0 0 0 
0 0 0 0 0 0 0 0 0 
0 0 0 0 0 0 0 0 0 
0 0 0 0 0 0 0 0 0 
0 0 0 0 0 0 0 0 0 
0 0 0 0 0 0 0 0 0 
0 0 0 0 0 0 0 0 0 
0 0 0 0 0 0 0 0 0 
0 0 0 0 0 0 0 0 0 
0 0 0 0 0 0 0 0 0 
0 0 0 0 0 0 0 0 0 
0 0 0 0 0 0 0 0 0 
0 0 0 0 0 0 0 0 0 
0 0 0 0 0 0 0 0 0 
0 0 0 0 0 0 0 0 0 
0 0 0 0 0 0 0 0 0 
0 0 0 0 0 0 0 0 0 
0 0 0 0 0 0 0 0 0 
0 0 0 0 0 0 0 0 0 
0 0 0 0 0 0 0 0 0 
0 0 0 0 0 0 0 0 0 
0 0 0 0 0 0 0 0 0 
0 0 0 0 0 0 0 0 0 
0 0 0 0 0 0 0 0 0 
0 0 0 0 0 0 0 0 0 
0 0 0 0 0 0 0 0 0 
0 0 0 0 0 0 0 0 0 
0 0 0 0 0 0 0 0 0 
0 0 0 0 0 0 0 0 0 
0 0 0 0 0 0 0 0 0 
0 0 0 0 0 0 0 0 0 
0 0 0 0 0 0 0 0 0 
0 0 0 0 0 0 0 0 0 
0 0 0 0 0 0 0 0 0 
0 0 0 0 0 0 0 0 0 
0 0 0 0 0 0 0 0 0 
0 0 0 0 0 0 0 0 0 
0 0 0 0 0 0 0 0 0 
0 0 0 0 0 0 0 0 0 
0 0 0 0 0 0 0 0 0 
0 0 0 0 0 0 0 0 0 
0 0 0 0 0 0 0 0 0 
0 0 0 0 0 0 0 0 0 
0 0 0 0 0 0 0 0 0 
0 0 0 0 0 0 0 0 0 
0 0 0 0 0 0 0 0 0 
0 0 0 0 0 0 0 0 0 
0 0 0 0 0 0 0 0 0 
0 0 0 0 0 0 0 0 0 
0 0 0 0 0 0 0 0 0 
0 0 0 0 0 0 0 0 0 
0 0 0 0 0 0 0 0 0 
0 0 0 0 0 0 0 0 0 
0 0 0 0 0 0 0 0 0 
0 0 0 0 0 0 0 0 0 
0 0 0 0 0 0 0 0 0 
0 0 0 0 0 0 0 0 0 
0 0 0 0 0 0 0 0 0 
0 0 0 0 0 0 0 0 0 
0 0 0 0 0 0 0 0 0 
0 0 0 0 0 0 0 0 0 
0 0 0 0 0 0 0 0 0 
0 0 0 0 0 0 0 0 0 
0 0 0 0 0 0 0 0 0 
0 0 0 0 0 0 0 0 0 
0 0 0 0 0 0 0 0 0 
0 0 0 0 0 0 0 0 0 
0 0 0 0 0 0 0 0 0 
0 0 0 0 0 0 0 0 0 
0 0 0 0 0 0 0 0 0 
0 0 0 0 0 0 0 0 0 
0 0 0 0 0 0 0 0 0 
0 0 0 0 0 0 0 0 0 
0 0 0 0 0 0 0 0 0 
0 0 0 0 0 0 0 0 0 
0 0 0 0 0 0 0 0 0 
0 0 0 0 0 0 0 0 0 
0 0 0 0 0 0 0 0 0 
0 0 0 0 0 0 0 0 0 
0 0 0 0 0 0 0 0 0 
0 0 0 0 0 0 0 0 0 
0 0 0 0 0 0 0 0 0 
0 0 0 0 0 0 0 0 0 
0 0 0 0 0 0 0 0 0 
0 0 0 0 0 0 0 0 0 
0 0 0 0 0 0 0 0 0 
0 0 0 0 0 0 0 0 0 
0 0 0 0 0 0 0 0 0 
0 0 0 0 0 0 0 0 0 
0 0 0 0 0 0 0 0 0 
0 0 0 0 0 0 0 0 0 
0 0 0 0 0 0 0 0 0 
0 0 0 0 0 0 0 0 0 
0 0 0 0 0 0 0 0 0 
0 0 0 0 0 0 0 0 0 
0 0 0 0 0 0 0 0 0 
0 0 0 0 0 0 0 0 0 
0 0 0 0 0 0 0 0 0 
0 0 0 0 0 0 0 0 0 
0 0 0 0 0 0 0 0 0 
0 0 0 0 0 0 0 0 0 
0 0 0 0 0 0 0 0 0 
0 0 0 0 0 0 0 0 0 
0 0 0 0 0 0 0 0 0 
0 0 0 0 0 0 0 0 0 
0 0 0 0 0 0 0 0 0 
0 0 0 0 0 0 0 0 0 
0 0 0 0 0 0 0 0 0 
0 0 0 0 0 0 0 0 0 
0 0 0 0 0 0 0 0 0 
0 0 0 0 0 0 
v 3 890 double
-0.00179729 0.000330148 -0.0022465 0.00453893 -0.0050806 0.00469863 0.00600391 -0.00282646 -0.00508948 
0.00101494 0.00352414 0.00377172 -0.00442854 -0.00142184 7.89277e-05 -0.00282942 0.00355906 0.00429507 
-0.00197419 -0.0012935 -0.00310422 -0.0033081 -0.000952205 -0.0073426 -0.00627352 0.00256945 -0.00334488 
-0.00874583 0.00555839 0.0011605 -0.00303584 0.000615445 0.0026441 -0.00865201 0.00783776 0.00119393 
-0.00299379 -0.00127126 -0.00172528 -0.00041663 -0.00151769 -0.00300964 -0.0113496 0.00427392 -0.000703304 
-0.00573412 -0.0026832 0.00312726 0.00479369 0.00987183 0.00587669 -0.00316943 0.00398073 -0.0015402 
-0.00150805 -0.00165602 -0.00420745 0.00439553 -0.000653443 -0.00740579 0.00323046 0.000719884 -0.000541575 
0.00330841 -0.0286631 0.000860933 0.00495765 0.00609555 0.000263232 -0.0011278 0.00172779 0.00105232 
0.00143251 -4.36117e-05 -0.00395432 0.00018385 0.00464804 -0.00116769 -0.000485733 0.00702414 -0.00225711 
0.00391473 0.0150136 -0.00474851 0.00311954 0.00357439 -0.00389405 0.00458309 -0.00160687 -0.00167834 
0.00289935 0.00353971 -0.0027807 0.0122737 0.00349587 -0.00290705 0.0109295 0.00699427 -0.00389882 
0.00191155 0.00569098 0.00142768 0.00168334 0.00157534 0.0013609 0.00402135 0.00492043 -0.000616524 
0.00356986 0.00613834 0.00160106 0.000789048 3.45736e-05 -0.00343292 0.00328346 -0.000953935 0.00159113 
0.00371591 -0.000869582 -0.00117751 0.0116289 0.00794453 0.00120971 0.0095296 0.011169 -0.000786062 
0.00533481 0.00761018 -0.00320915 0.0109544 0.00403522 5.28983e-05 0.000477103 -0.00155159 0.000141526 
-0.00125215 -0.00359585 2.07885e-05 -0.00248492 0.00364328 0.000193276 0.0136445 0.0118348 -0.00298936 
0.0125078 0.00592917 0.00177388 0.00993935 0.00221062 -0.00534252 0.00206371 0.00218152 -0.00281518 
0.00148808 -0.00136098 -0.0011494 0.000217504 -0.00180266 -0.000578699 -0.00916313 0.00555655 0.00356037 
-0.00512486 0.00249521 0.00124641 -0.0053854 -0.000661667 -0.000123099 0.00332017 -3.55655e-05 -0.00221471 
0.000391779 0.00360947 -0.00124575 0.00824579 0.00639428 0.000520962 -0.00248459 0.0210873 -0.000162239 
-0.000545035 -0.00795431 -0.00113986 0.00295297 -0.00543076 -0.00234358 0.000172082 0.00374745 0.00164803 
-0.00256769 0.00323768 0.00130528 0.00248934 0.000568536 0.00304462 0.00104929 0.00751312 -0.00167655 
-0.00443847 -0.00765196 -0.00274631 0.000701604 0.0091207 0.00333555 -0.00141702 -0.00158804 0.00273614 
0.00113346 0.00131791 -0.00180886 0.000884774 0.00396513 -0.00016659 -0.00297419 0.0114002 -0.00185239 
-0.00150378 -0.00455968 -0.00501372 0.00176848 -0.00387534 -0.00155187 0.000905901 0.00617144 -9.75548e-05 
-0.000994229 0.00465561 0.000495953 5.21017e-05 0.000557989 0.0014648 -0.0014694 0.00709844 -0.00267144 
0.00338066 0.00249504 -0.00283007 0.00681201 0.00740097 0.00308554 -0.00280139 0.0090336 0.00341572 
-0.00500166 -0.00790176 -0.00254381 -0.00457666 -0.00165646 -0.00251446 -0.00121004 0.00263611 0.00152116 
0.00253858 0.00947171 0.00335627 0.000705081 -0.000228157 -0.000222052 0.00655611 -0.00139715 0.000675355 
-0.0047264 0.0037639 -0.000624332 -7.72044e-05 -0.00260058 -0.00423936 -0.00176266 0.0105258 -0.00120597 
-0.00207497 -0.000591327 -0.00135385 0.00413693 0.0046962 0.00513656 0.00669986 -0.00771335 0.00150427 
0.00335344 2.54824e-05 -0.00563404 0.00412134 -0.0141379 -0.0028997 0.00490198 0.00106398 0.00440711 
-0.0170207 0.00558039 0.00189342 -0.0130178 0.00474203 -0.00163432 -0.000277965 -0.00243263 -0.00446379 
-0.00391243 0.00689835 -0.000605322 0.000659115 0.00232075 -0.000262861 -0.00252983 -0.00981109 0.00094637 
0.00443626 0.00187152 0.00267013 -0.0150462 0.0156574 0.00638653 0.00667656 -0.00153394 0.00204249 
0.005005 -0.000628105 -0.00192819 -0.0024358 0.00368942 -0.00580664 -0.0278896 -0.0164493 -6.96786e-05 
0.00249892 -0.00529431 -0.00157364 0.00442134 0.00556745 0.00488264 2.84395e-05 0.00235944 -0.00236878 
-0.0258523 -0.0131586 -0.000187937 -0.0171662 -0.00876282 0.00844675 0.00772695 0.00266204 0.000974913 
0.00736437 -0.00103023 0.00137936 0.00918477 -0.00246083 0.000646023 0.00528167 -0.00106461 0.000855278 
-0.000988146 -0.00243903 -0.00704006 -0.00189477 -0.00516503 -0.0136519 -0.00302982 0.00421157 0.00502127 
-0.00671013 0.00149433 0.00242135 0.00663706 -0.00127993 -0.00847422 -0.00704894 -0.000607893 -0.00787878 
0.00133913 0.000738649 -0.00992222 -0.00430361 -0.00613079 -0.00963935 0.000842689 0.00300915 -0.000470102 
0.00417184 -0.000563052 0.00493571 0.000116677 0.000448048 -0.0155457 0.000301949 -0.000908972 -0.00176887 
0.0121284 0.017029 -0.00953973 0.0103625 0.00260281 0.00137922 3.99782e-06 -0.00284876 -0.000398125 
0.00597371 -0.00308272 0.00193237 0.00920961 0.029278 -0.00560231 0.00145473 -0.0034615 -0.00225427 
0.00235705 0.00190603 -0.00520821 0.0034913 0.00996487 -0.00197738 0.00327345 0.00838518 0.00695261 
0.00195732 0.0180431 0.00265956 -0.00476146 0.0148001 0.00970087 0.000634579 0.000939359 0.00161013 
-0.00522731 -0.000441317 -0.00479477 0.00173084 0.00593112 0.011075 0.00512671 -0.00197127 0.00436887 
0.00179705 0.00103878 0.00466375 -0.00135604 0.00571163 -0.00160127 0.00616208 0.00109231 -0.0111856 
0.00264404 0.00963254 0.00740485 -0.0054624 -0.00175375 -0.0114156 -0.00334869 -0.00218015 -0.00548512 
-0.00750798 -0.00177064 0.0179584 -0.00128624 0.000253246 -0.0124437 -0.0035658 0.000300913 -0.0130542 
0.00209879 0.0169609 0.00421878 0.000278206 -0.00618815 -0.0102875 -0.0147404 0.00702828 -0.00392054 
0.00489716 0.00796831 0.00400669 0.00205612 0.00286784 0.00206077 0.0213257 -0.0211062 -0.0507496 
-0.00146776 -0.0101569 -0.0208055 -0.0101553 -0.000271898 -0.014295 -0.0140287 0.0163763 -0.00113644 
0.00441232 -0.0222648 -0.0351625 -0.00188048 0.00490306 -0.000127659 0.00670843 -0.00725134 0.004176 
0.00915684 0.00610205 -0.00804903 0.00884642 -0.00485063 -0.00662116 0.00248761 0.0057301 0.00701837 
0.00433381 0.00344683 -0.00792238 0.00706127 0.00145917 -0.00885008 0.014346 0.00118971 -0.00568413 
0.0100595 0.00934115 -0.0203412 -0.00419826 0.00357059 -0.00988765 0.00917757 0.00327132 -0.00491162 
0.00996288 0.00356448 -0.000250417 0.0113743 0.0043379 -0.00299652 0.0166396 -0.00459322 -0.00261956 
0.0221285 0.0050063 -0.00968851 0.00909231 0.0104969 -0.00521139 0.0080457 0.0135563 -0.0011159 
-0.00127003 0.00581441 0.00112977 0.00591488 0.0165904 -0.00228182 0.00715657 0.0127037 -0.00728686 
0.000915776 0.00523418 -0.0130168 0.00188963 0.00855119 0.00271512 0.00133118 -0.00199495 -0.00276509 
0.000810534 -0.00143005 0.000700595 0.00923046 0.0209107 -0.00178161 0.0067317 0.0111939 -0.00936725 
0.00460917 0.00931635 0.00484955 0.00254142 0.00115539 -0.00298003 0.00490867 -0.0052285 -0.00387035 
-0.0150635 0.00908617 0.0115731 -0.00227497 0.00768523 0.00340714 -0.0132596 0.00477699 0.00784206 
0.0013501 0.00821884 -0.0045335 0.00237129 0.0113181 -0.0183336 -0.000982335 -0.000548291 -0.00161014 
-0.00300503 0.0115917 0.00220928 -0.0124348 0.000488263 0.00290823 0.00484312 0.000449884 -0.00064643 
-0.00206503 0.00668767 -0.00436691 -0.00235817 -0.0109709 -0.00204554 0.00492988 -0.00317176 -0.00674789 
0.00318549 0.00972364 -0.00228037 -0.00342616 0.00859226 -0.0016333 -0.00374319 0.000820699 0.00231025 
-0.000139992 0.00934102 -0.00023183 0.0052959 0.00572033 -0.000606915 -0.00358299 -0.0132897 -0.00367308 
-0.0028521 -0.0134167 -0.0133283 -0.00181773 0.0110979 0.000169119 -0.00521915 0.0126299 0.00319206 
0.00448978 -0.00237001 -0.00109234 0.00316044 0.00592228 -0.00425349 0.00405165 0.0049981 0.0013395 
0.00454719 0.00506469 0.00968502 -0.00439645 0.00364619 -0.00774616 -0.0147278 0.0105885 -0.00737833 
0.00618708 -0.00602314 -0.00105777 -0.00310547 0.00408742 -0.00655185 0.00399068 0.00273121 -0.00318968 
-0.000409706 0.00566695 -0.0022195 -0.00420873 -0.00429982 -0.00712146 -0.0143192 -0.00617669 -0.0139643 
0.00913159 -0.0032442 0.0111693 0.00457561 0.00424363 -0.0104424 -0.00408738 -0.00243128 0.00124139 
-0.00503399 -0.0146442 0.0039973 0.00645925 -0.0084119 0.00222267 0.00793232 0.000671753 0.0128311 
-0.0139272 0.00763318 -0.00162066 0.00213144 -0.00215373 0.00203847 -0.0052176 -0.00355137 0.0041824 
-0.00395632 -0.0157881 0.00130169 0.00452481 0.00674837 -0.006584 0.00102087 -0.00784447 -0.00596193 
-0.0027566 0.00418517 -0.00562102 0.0119544 -0.0053811 0.00437574 0.00680986 -0.00300714 0.00480031 
0.0128918 -0.00744685 0.00839757 0.00559165 -0.00380857 -0.0034793 0.00892488 -0.00643998 0.00577087 
-0.000308691 -0.000763416 -0.00653429 0.00462481 0.000487349 0.0135775 0.00771602 -0.00490478 -0.000444486 
0.0047305 -0.00201962 0.0168046 0.00112452 -0.00696364 0.00170615 -0.0117402 0.00544539 -0.0168506 
-0.0163471 -0.00941177 0.0198136 -0.00450948 -0.00423257 -0.0218787 0.00268092 -0.00671749 -0.0125128 
0.00520068 0.00384068 -0.00180132 -0.00218069 0.00636325 0.0178881 0.00307925 -0.00919188 -0.0154753 